<?xml version="1.0"?>
<VTKFile type="PolyData" version="0.1" byte_order="LittleEndian" compressor="vtkZLibDataCompressor">
	<PolyData>
		<Piece NumberOfPoints="456" NumberOfVerts="0" NumberOfLines="0" NumberOfStrips="0" NumberOfPolys="908">
		<PointData Normals="Normals">
		<DataArray type="Float32" Name="Normals" NumberOfComponents="3" format="ascii">
			-0.069096 0.769227 0.635229
			-0.026218 0.339365 0.940290
			-0.345376 0.594978 0.725753
			-0.078921 0.849914 0.520978
			0.224630 0.731801 0.643435
			0.294189 0.816506 0.496762
			-0.461263 0.291650 0.837960
			-0.387315 0.020110 0.921728
			-0.160565 -0.128079 0.978680
			0.184408 0.009660 0.982803
			0.405768 0.216774 0.887898
			0.399349 0.478885 0.781786
			-0.398354 0.792925 0.461069
			-0.654737 0.522950 0.545750
			-0.091184 0.948950 0.301959
			0.253953 0.907854 0.333630
			0.602186 0.553330 0.575498
			0.571948 0.748387 0.335846
			-0.709707 0.089363 0.698806
			-0.491374 -0.235791 0.838423
			-0.125492 -0.321988 0.938390
			0.281092 -0.213477 0.935636
			0.506697 -0.077761 0.858610
			0.663933 0.196705 0.721457
			-0.425705 0.850344 0.309338
			-0.678734 0.665947 0.309572
			-0.859587 0.289224 0.421260
			-0.179976 0.982363 0.050704
			0.129800 0.989866 0.057586
			0.408632 0.910730 0.059921
			0.805439 0.443172 0.393531
			0.688507 0.723010 0.056700
			-0.767445 -0.164826 0.619564
			-0.464903 -0.429541 0.774183
			-0.078593 -0.518612 0.851390
			0.360821 -0.450298 0.816725
			0.664982 -0.218810 0.714088
			0.823671 0.079951 0.561405
			-0.487640 0.870040 0.072374
			-0.769050 0.626689 0.125788
			-0.943713 0.271757 0.188558
			-0.924683 -0.122609 0.360456
			-0.466654 0.857633 -0.216101
			-0.162934 0.960547 -0.225395
			0.127186 0.964886 -0.229822
			0.439329 0.862790 -0.250166
			0.958763 0.078440 0.273168
			0.898600 0.433464 0.068028
			0.740035 0.619514 -0.261820
			-0.701058 -0.470998 0.535423
			-0.355443 -0.643830 0.677601
			0.098007 -0.688124 0.718943
			0.516994 -0.566802 0.641445
			0.808283 -0.275454 0.520388
			-0.765528 0.623924 -0.157118
			-0.965336 0.249269 -0.077408
			-0.978182 -0.191422 0.080738
			-0.774979 -0.494927 0.393006
			-0.447947 0.796145 -0.406813
			-0.771118 0.557281 -0.307921
			-0.129974 0.883379 -0.450274
			0.189801 0.847320 -0.496009
			0.493123 0.682565 -0.539383
			0.992575 -0.109928 0.052057
			0.949276 0.261126 -0.175185
			0.729239 0.408957 -0.548601
			-0.406206 -0.744877 0.529296
			0.085274 -0.775323 0.625782
			0.513639 -0.715697 0.473237
			0.835664 -0.471317 0.282003
			-0.967017 0.219278 -0.129598
			-0.976777 -0.214087 0.008576
			-0.767424 -0.614363 0.183353
			-0.379109 -0.830276 0.408556
			-0.249425 0.725779 -0.641118
			-0.581260 0.572877 -0.577883
			-0.801102 0.295188 -0.520674
			0.021306 0.717589 -0.696141
			0.317355 0.584304 -0.746910
			0.525319 0.343994 -0.778272
			0.938935 -0.275352 -0.206356
			0.908579 0.072997 -0.411285
			0.684748 0.007563 -0.728741
			0.043566 -0.869563 0.491897
			0.576838 -0.707669 0.407999
			0.812708 -0.571642 0.112837
			-0.954680 0.019490 -0.296993
			-0.844487 -0.497809 -0.197553
			-0.531237 -0.845054 -0.060585
			-0.301931 -0.951240 0.063087
			-0.482537 0.361126 -0.797964
			-0.222577 0.304211 -0.926237
			-0.677453 0.137306 -0.722637
			-0.829809 -0.220917 -0.512457
			-0.066237 0.244516 -0.967380
			0.256732 0.214342 -0.942415
			0.533304 -0.013800 -0.845811
			0.738102 -0.613398 -0.280979
			0.787539 -0.312349 -0.531245
			0.655138 -0.348244 -0.670463
			-0.163688 -0.982265 0.091442
			0.123271 -0.990226 0.065242
			0.459493 -0.888146 -0.007967
			-0.721342 -0.686539 -0.091271
			-0.396243 -0.909328 0.126943
			-0.207342 -0.975375 0.075193
			-0.576356 0.207058 -0.790532
			-0.321499 0.365731 -0.873430
			-0.907794 -0.063698 -0.414553
			-0.914076 -0.396135 0.086850
			0.011419 0.466458 -0.884470
			0.583465 0.208394 -0.784947
			0.530789 -0.740534 -0.412157
			0.871615 -0.193260 -0.450487
			0.048536 -0.998263 0.033380
			0.289746 -0.945738 -0.147064
			-0.497792 -0.654160 0.569453
			0.088460 -0.842128 0.531973
			-0.683986 0.648301 -0.334469
			-0.954477 0.240605 -0.176301
			0.004213 0.927394 -0.374062
			-0.984942 -0.051127 0.165151
			-0.769838 -0.192038 0.608663
			0.616418 0.717155 -0.325140
			0.978245 0.187824 -0.088088
			0.830355 -0.517302 -0.207148
			0.980031 -0.198466 -0.012288
			0.631775 -0.747816 0.204040
			-0.095671 -0.452709 0.886512
			0.558252 -0.485831 0.672549
			-0.146750 0.987879 0.050601
			-0.734412 0.677232 0.044673
			-0.953686 0.300473 -0.014078
			-0.977077 0.184618 0.106000
			0.522028 0.851656 0.046566
			-0.886863 0.073970 0.456072
			-0.496624 -0.089582 0.863331
			0.875307 0.482874 0.025866
			0.988866 -0.127231 -0.077170
			0.934964 -0.311033 0.170594
			0.984337 -0.175114 0.020383
			0.955485 -0.289728 -0.055735
			0.352114 -0.378115 0.856180
			0.827385 -0.270705 0.492090
			-0.089842 0.949417 0.300891
			0.532248 0.837863 0.121233
			-0.460284 0.516790 0.721850
			-0.791211 0.306157 0.529390
			-0.684132 0.551585 0.477197
			-0.827183 0.318605 0.462880
			0.834031 0.524233 -0.171960
			-0.819324 0.246803 0.517491
			-0.348311 0.193758 0.917135
			0.951625 -0.038303 -0.304866
			0.966678 -0.202826 -0.156192
			0.946646 -0.255535 -0.196375
			0.840196 -0.309424 0.445341
			0.992318 -0.122006 0.020509
			0.464858 -0.286114 0.837881
			0.124502 0.904032 0.408932
			0.458579 0.874579 -0.157535
			0.815393 0.341668 -0.467329
			0.332921 0.333799 0.881897
			0.087561 -0.130065 0.987631
			0.043151 0.324838 0.944785
			-0.352743 0.414477 0.838916
			-0.713574 0.320957 0.622735
			0.906026 -0.058699 -0.419132
			-0.597818 0.554098 0.579300
			-0.521807 0.647491 0.555403
			0.104996 0.293772 0.950091
			0.972937 -0.095578 -0.210374
			0.932250 -0.180815 -0.313392
			0.944918 -0.176477 -0.275656
			0.962148 -0.131078 -0.238934
			0.535596 -0.248747 0.807009
			0.538225 -0.157928 0.827872
			0.837274 0.083877 0.540313
			0.261187 0.954323 -0.145081
			0.510672 0.357215 -0.782056
			0.741295 0.020803 -0.670856
			0.094645 0.897918 0.429867
			-0.038206 0.127130 0.991150
			-0.298890 0.102726 0.948742
			-0.634816 0.089631 0.767448
			-0.786015 0.070310 0.614197
			-0.869838 0.382251 0.311874
			0.912719 -0.244765 -0.327161
			0.886844 -0.100969 -0.450902
			-0.669892 0.561258 0.486040
			-0.312661 0.248965 0.916657
			0.550011 -0.208986 0.808586
			0.990965 0.130388 -0.031404
			0.947559 0.036310 -0.317511
			0.905902 -0.104096 -0.410494
			0.964513 -0.009014 0.263882
			0.464182 -0.318571 0.826466
			0.253082 -0.143625 0.956725
			0.474779 -0.005442 0.880089
			0.070665 0.673664 -0.735651
			-0.311192 0.906941 -0.283931
			0.353723 0.241539 -0.903625
			0.664872 0.188479 -0.722787
			-0.807750 0.580767 0.101240
			-0.924950 0.020405 0.379540
			-0.969557 -0.032436 0.242705
			-0.956197 -0.214257 0.199451
			-0.972866 -0.225381 0.052303
			-0.999289 0.026942 -0.026386
			0.705641 -0.351936 -0.614990
			0.804406 -0.162193 -0.571511
			-0.754734 -0.205564 0.622993
			0.212954 -0.491766 0.844285
			0.480052 -0.441075 0.758290
			0.986645 0.162720 -0.007379
			0.931631 0.152756 -0.329741
			0.792517 -0.021571 -0.609468
			0.810743 0.064090 0.581882
			0.110564 -0.266899 0.957361
			0.323875 -0.062286 0.944048
			0.020405 0.430032 -0.902583
			-0.444130 0.571768 -0.689805
			-0.827998 0.370556 -0.420842
			0.353216 0.206845 -0.912389
			-0.971947 0.083701 -0.219805
			-0.934978 -0.070555 -0.347617
			-0.878062 -0.261404 -0.400841
			-0.914264 -0.349557 -0.204774
			-0.914195 -0.308065 -0.263329
			-0.937063 -0.348906 -0.013323
			-0.902308 -0.428433 -0.047801
			0.344924 -0.403546 -0.847454
			0.425571 -0.336986 -0.839840
			-0.384818 -0.772422 0.505251
			0.050910 -0.700985 0.711357
			0.971762 0.171309 -0.162273
			0.863426 0.137133 0.485480
			0.835971 0.067481 -0.544609
			0.317466 -0.129440 -0.939394
			0.670309 0.003220 -0.742075
			0.300191 -0.035105 0.953233
			-0.233302 -0.309779 0.921741
			-0.219801 0.189653 -0.956932
			-0.594713 0.151717 -0.789492
			-0.764919 0.059584 -0.641364
			-0.067713 -0.295981 -0.952791
			-0.757208 -0.201557 -0.621298
			-0.846561 -0.432174 -0.310742
			-0.689968 -0.302216 -0.657730
			-0.611990 -0.325601 -0.720731
			-0.909553 -0.412672 -0.049145
			-0.644565 -0.737422 0.201854
			-0.126881 -0.383573 -0.914754
			0.927742 0.164425 -0.335050
			0.859333 0.204271 0.468848
			0.278239 0.077452 0.957384
			0.114144 -0.097243 -0.988694
			-0.250639 -0.210050 -0.945018
			0.633428 0.056416 -0.771743
			-0.488149 -0.146282 0.860414
			-0.730675 -0.351361 0.585371
			-0.444014 -0.209236 -0.871247
			-0.561778 -0.280837 -0.778162
			-0.927031 -0.240442 0.287753
			-0.775842 -0.248324 -0.580003
			0.815262 0.145747 -0.560452
			0.940584 0.200684 0.273909
			0.027589 0.065146 0.997494
			-0.014808 -0.082440 -0.996486
			0.116443 -0.058781 -0.991456
			-0.868547 -0.178038 0.462523
			-0.831807 -0.254496 -0.493284
			0.714894 0.078621 -0.694798
			0.974616 0.184783 0.126410
			0.130344 0.112054 0.985116
			-0.852343 -0.108531 0.511599
			-0.097114 -0.147147 -0.984336
			-0.894442 -0.246037 -0.373417
			0.697241 0.005436 -0.716817
			0.978028 0.126313 0.165851
			0.169831 0.096770 0.980710
			-0.864938 -0.066945 0.497395
			-0.930450 -0.175559 -0.321626
			-0.234661 -0.153497 -0.959881
			0.713185 -0.018608 -0.700730
			0.945687 0.116524 0.303475
			0.050825 0.124359 0.990934
			-0.884982 -0.007287 0.465569
			-0.927045 -0.120971 -0.354897
			-0.274288 -0.138864 -0.951569
			0.725099 -0.044537 -0.687203
			0.953428 0.088457 0.288356
			0.090136 0.124621 0.988102
			-0.870277 0.023892 0.491983
			-0.914108 -0.082814 -0.396922
			-0.232516 -0.140804 -0.962347
			0.595814 -0.094735 -0.797515
			0.984035 0.031544 0.175156
			0.169541 0.145611 0.974706
			-0.806702 0.081749 0.585276
			-0.941373 -0.012995 -0.337120
			-0.275735 -0.098234 -0.956201
			0.053933 -0.086393 -0.994801
			0.827625 -0.069389 -0.556975
			0.964436 0.010714 0.264101
			0.300114 0.145126 0.942799
			-0.639437 0.123320 0.758889
			-0.991055 0.052881 0.122527
			-0.675150 -0.028449 -0.737131
			-0.064859 -0.051620 -0.996558
			0.740229 -0.083522 -0.667148
			0.989073 -0.017733 0.146363
			0.427409 0.159442 0.889888
			-0.648979 0.194331 0.735568
			-0.961263 0.093294 0.259364
			-0.817390 0.052035 -0.573730
			-0.097133 0.090776 -0.991123
			0.673139 0.000842 -0.739515
			0.983450 -0.037185 0.177324
			0.650427 0.160356 0.742449
			-0.530658 0.386152 0.754513
			-0.963215 0.173686 0.205057
			-0.937489 0.199697 -0.285019
			-0.598329 0.540418 -0.591567
			0.202555 0.242130 -0.948865
			0.876999 0.239849 -0.416348
			0.965834 0.134555 0.221497
			0.798918 0.156127 0.580822
			-0.030771 0.539747 0.841265
			-0.904975 0.372638 0.205330
			-0.924746 0.360711 0.121379
			-0.427552 0.794153 -0.431879
			0.130447 0.408202 -0.903523
			-0.628368 0.742072 0.233414
			0.413070 0.198857 -0.888723
			0.819978 0.175349 -0.544875
			0.981559 0.098965 0.163550
			0.980491 0.136491 0.141448
			0.823491 0.297415 0.483122
			0.722125 0.419877 0.549763
			0.145648 0.693490 0.705591
			-0.849744 0.518892 0.093199
			-0.794684 0.603878 0.061718
			-0.759809 0.637085 0.129661
			-0.389043 0.688164 -0.612434
			-0.513092 0.810528 0.282453
			0.043552 0.345463 -0.937421
			0.316924 0.040160 -0.947601
			-0.638479 0.603285 0.477904
			0.414080 -0.051687 -0.908772
			0.907642 -0.137545 -0.396570
			0.918255 -0.322741 0.229452
			0.953958 -0.280670 -0.105770
			0.997250 0.060748 0.042438
			0.826406 0.185502 0.531641
			0.736400 0.224889 0.638075
			0.705964 0.011395 0.708157
			0.365334 0.147170 0.919169
			-0.251380 0.696980 0.671585
			-0.604461 0.779822 0.162802
			-0.581822 0.802091 -0.134664
			-0.871840 0.488057 0.041168
			-0.678442 0.527057 -0.511788
			-0.363500 0.132901 -0.922065
			-0.775396 0.631265 -0.016300
			-0.558321 0.202639 0.804496
			-0.712505 0.440556 0.546121
			-0.063237 -0.210649 -0.975514
			0.223513 -0.275940 -0.934825
			-0.956882 -0.233465 0.172832
			0.261592 -0.217120 -0.940440
			0.398878 -0.184157 -0.898322
			0.819849 -0.532809 -0.209673
			0.733990 -0.624641 0.266613
			0.728008 -0.660640 -0.183188
			0.743323 -0.383402 -0.548154
			0.963248 -0.208637 0.169190
			0.787601 -0.028527 0.615525
			0.765978 0.025582 0.642358
			0.613248 -0.206803 0.762337
			0.257941 -0.124214 0.958143
			-0.272639 0.194416 0.942269
			-0.460147 0.746288 0.480957
			-0.252017 0.963816 0.086865
			-0.299870 0.871868 -0.387202
			-0.636529 0.394715 -0.662594
			-0.677156 0.047702 -0.734292
			-0.973744 0.218788 -0.062886
			-0.314710 -0.135881 -0.939412
			-0.915970 0.044326 0.398790
			-0.512469 -0.248063 0.822095
			-0.539042 -0.149172 0.828964
			-0.092975 -0.155848 -0.983395
			0.142049 -0.219007 -0.965328
			-0.568087 -0.069603 -0.820021
			-0.913953 -0.396528 -0.086346
			0.228195 -0.242773 -0.942862
			0.420435 -0.673850 -0.607587
			0.484772 -0.863571 0.138711
			0.360731 -0.908773 0.209771
			0.307039 -0.836201 -0.454418
			0.661393 -0.700060 -0.269211
			0.752226 -0.104584 0.650554
			0.685354 -0.141916 0.714249
			0.528426 -0.274936 0.803229
			0.245990 -0.258192 0.934251
			-0.175680 -0.023060 0.984177
			-0.691401 0.163314 0.703770
			-0.629973 0.765931 -0.128389
			-0.505617 0.346810 -0.789984
			-0.851958 -0.313704 -0.419235
			-0.863449 -0.438283 0.249728
			-0.564979 -0.400668 -0.721292
			-0.637789 -0.595824 0.488077
			-0.359636 -0.534972 0.764504
			-0.143679 -0.650226 -0.746031
			0.160968 -0.674351 -0.720653
			-0.493697 -0.230179 -0.838619
			-0.634302 -0.231223 -0.737696
			-0.454065 -0.488929 -0.744831
			-0.576186 -0.771896 -0.268676
			-0.389402 -0.791064 0.471788
			0.158075 -0.971887 -0.174494
			0.166705 -0.969012 0.182281
			-0.049948 -0.971722 -0.230785
			-0.071862 -0.922977 0.378085
			0.062049 -0.838021 -0.542098
			0.266829 -0.891965 -0.364967
			0.623400 -0.662234 0.415716
			0.566262 -0.130603 0.813812
			0.437595 -0.285951 0.852491
			0.166198 -0.271719 0.947917
			-0.105787 -0.241779 0.964547
			-0.768824 -0.382196 0.512675
			-0.981348 0.080624 -0.174514
			-0.608561 -0.763817 0.215029
			-0.420050 -0.782099 0.460304
			-0.431630 -0.902028 0.006441
			-0.165229 -0.826862 0.537586
			-0.098544 -0.994209 -0.042880
			-0.561225 -0.557240 -0.611973
			-0.864694 -0.465356 -0.189075
			-0.383389 -0.684735 -0.619799
			-0.293944 -0.694379 -0.656836
			-0.054806 -0.975482 0.213145
			0.141503 -0.986704 -0.079946
			-0.124117 -0.862297 -0.490956
			0.414972 -0.462902 0.783275
			0.043471 -0.452698 0.890604
			-0.436925 -0.569602 0.696168
			-0.714688 -0.698365 0.038820
			-0.252671 -0.919024 0.302577
			-0.527131 -0.803691 -0.276068
			-0.224519 -0.967776 -0.114021
			-0.025186 -0.900940 0.433211
			-0.386176 -0.899922 0.202506
		</DataArray>
	</PointData>
	<Points>
		<DataArray type="Float32" NumberOfComponents="3" format="ascii">
			-0.004239 0.016249 0.015426
			-0.000052 0.007692 0.020467
			-0.010259 0.013279 0.016341
			-0.003286 0.018877 0.012089
			0.003250 0.016125 0.015940
			0.008705 0.015966 0.013204
			-0.013833 0.006291 0.017782
			-0.011171 -0.002121 0.020761
			-0.002538 -0.006548 0.022396
			0.005872 -0.000887 0.022821
			0.010729 0.004164 0.019231
			0.009359 0.012429 0.016567
			-0.009623 0.016495 0.012661
			-0.015750 0.010363 0.013814
			-0.002948 0.021308 0.006226
			0.006159 0.019701 0.007816
			0.015079 0.010411 0.013487
			0.013563 0.016048 0.007931
			-0.017334 0.001715 0.016097
			-0.012698 -0.005448 0.018961
			-0.002600 -0.009522 0.021420
			0.006268 -0.006751 0.021995
			0.012332 -0.003108 0.019573
			0.015486 0.001930 0.017083
			-0.010198 0.019192 0.006780
			-0.016504 0.013950 0.008023
			-0.020131 0.005730 0.010727
			-0.003089 0.022348 0.000455
			0.003089 0.022200 0.000037
			0.009661 0.020082 0.000324
			0.019035 0.009689 0.007755
			0.016874 0.015206 0.000716
			-0.018325 -0.004399 0.014520
			-0.011592 -0.010546 0.017841
			-0.001500 -0.012411 0.020117
			0.007661 -0.010553 0.019867
			0.015441 -0.005899 0.016500
			0.020623 0.001342 0.010826
			-0.010180 0.020270 0.000999
			-0.017006 0.015534 0.002078
			-0.022023 0.006679 0.004725
			-0.021874 -0.002225 0.008791
			-0.010849 0.019605 -0.005537
			-0.004160 0.021704 -0.005391
			0.002449 0.021757 -0.006128
			0.008849 0.019940 -0.006732
			0.022444 -0.000449 0.007819
			0.021218 0.009162 0.002216
			0.017094 0.013512 -0.007206
			-0.017018 -0.010096 0.012976
			-0.009382 -0.014178 0.016209
			0.000334 -0.016388 0.017182
			0.011265 -0.012908 0.016041
			0.018087 -0.008721 0.012511
			-0.017191 0.014896 -0.004373
			-0.022348 0.006621 -0.001182
			-0.022968 -0.003732 0.003036
			-0.018439 -0.011757 0.008597
			-0.012215 0.016801 -0.010320
			-0.019120 0.011200 -0.007370
			-0.004549 0.019490 -0.011297
			0.003601 0.018861 -0.012534
			0.011087 0.015084 -0.013581
			0.023086 -0.004367 0.001571
			0.021818 0.005696 -0.005066
			0.016455 0.009620 -0.013638
			-0.010557 -0.016009 0.013488
			0.000369 -0.018270 0.015142
			0.012027 -0.015782 0.012387
			0.020189 -0.010242 0.007632
			-0.022958 0.001321 -0.004261
			-0.022130 -0.007808 0.000585
			-0.016857 -0.014437 0.009202
			-0.007729 -0.017899 0.013009
			-0.004555 0.016828 -0.015438
			-0.011669 0.014765 -0.014086
			-0.018157 0.008939 -0.011751
			0.001697 0.015565 -0.017640
			0.006577 0.013495 -0.018242
			0.011009 0.008292 -0.018891
			0.021899 -0.004878 -0.007083
			0.020637 0.001825 -0.011369
			0.016153 -0.000378 -0.017316
			0.004151 -0.019318 0.012822
			0.014093 -0.017412 0.005805
			0.020048 -0.012535 -0.000076
			-0.022411 0.000763 -0.008593
			-0.022361 -0.006854 -0.003905
			-0.016865 -0.014041 0.002837
			-0.008757 -0.017599 0.007931
			-0.012180 0.010782 -0.017044
			-0.004569 0.012226 -0.019235
			-0.017187 0.004045 -0.014178
			-0.019141 -0.003625 -0.012213
			0.001908 0.009989 -0.021428
			0.008181 0.005694 -0.021245
			0.010936 -0.001754 -0.020965
			0.017688 -0.015554 -0.003920
			0.018488 -0.007359 -0.012725
			0.013545 -0.009257 -0.016666
			-0.000435 -0.019788 0.008697
			0.005824 -0.020501 0.007239
			0.013356 -0.018739 0.002019
			-0.017513 -0.012253 -0.004422
			-0.010895 -0.016572 0.000685
			-0.003648 -0.019128 0.002560
			-0.011323 -0.001319 -0.017861
			-0.004391 0.003803 -0.018729
			-0.015721 -0.009408 -0.015123
			-0.014295 -0.016722 -0.009026
			0.001437 0.001468 -0.020957
			0.007782 -0.002059 -0.022668
			0.013444 -0.015612 -0.010919
			0.010415 -0.009303 -0.019855
			0.003160 -0.019542 0.001364
			0.009740 -0.018849 -0.003229
			-0.009018 -0.020660 -0.005178
			0.000217 -0.021786 -0.005474
			-0.009501 -0.007323 -0.026498
			-0.014480 -0.015170 -0.022841
			-0.001866 -0.003081 -0.027993
			-0.014166 -0.021184 -0.016584
			-0.012387 -0.027233 -0.013047
			0.005287 -0.006393 -0.029678
			0.008158 -0.014049 -0.028913
			0.010423 -0.015123 -0.014991
			0.007502 -0.021305 -0.026489
			0.007989 -0.019496 -0.009801
			-0.007509 -0.030086 -0.010877
			-0.000221 -0.030820 -0.013147
			-0.003276 -0.003809 -0.034627
			-0.009644 -0.008844 -0.031384
			-0.014171 -0.017052 -0.027330
			-0.015627 -0.025046 -0.023388
			0.002950 -0.005939 -0.037213
			-0.014721 -0.033184 -0.016224
			-0.012418 -0.035639 -0.013283
			0.007877 -0.010334 -0.037597
			0.010141 -0.016472 -0.037372
			0.005730 -0.028023 -0.021584
			0.005473 -0.032025 -0.030351
			0.007298 -0.022463 -0.035046
			-0.002291 -0.038989 -0.016032
			0.004113 -0.037946 -0.021742
			-0.003386 -0.002509 -0.041199
			0.002366 -0.003920 -0.042837
			-0.011455 -0.007025 -0.038812
			-0.013442 -0.015071 -0.038717
			-0.016033 -0.023602 -0.033402
			-0.018404 -0.033027 -0.025145
			0.006859 -0.007522 -0.044538
			-0.017217 -0.040066 -0.019436
			-0.015740 -0.044448 -0.014387
			0.008016 -0.012586 -0.045344
			0.004500 -0.028440 -0.038745
			0.005983 -0.019408 -0.043526
			0.003041 -0.045394 -0.022954
			0.004350 -0.037534 -0.031913
			-0.006516 -0.046123 -0.017173
			-0.006226 -0.000586 -0.046380
			0.000075 -0.000865 -0.050023
			0.003980 -0.007116 -0.051226
			-0.019371 -0.001667 -0.037210
			-0.020511 -0.010885 -0.041330
			-0.021729 -0.020288 -0.039975
			-0.023858 -0.027359 -0.034107
			-0.022696 -0.035113 -0.030123
			0.004290 -0.016586 -0.050769
			-0.020942 -0.043109 -0.023210
			-0.020045 -0.047499 -0.018343
			-0.018744 -0.050377 -0.011904
			0.002434 -0.033175 -0.044304
			0.002411 -0.025991 -0.048008
			0.004435 -0.047537 -0.032781
			0.003239 -0.040207 -0.038372
			-0.013049 -0.052402 -0.016731
			-0.001684 -0.053581 -0.021204
			0.004432 -0.051286 -0.026240
			-0.005850 0.000384 -0.050962
			0.001270 -0.008912 -0.054693
			0.002087 -0.019029 -0.053484
			-0.019267 0.001529 -0.039324
			-0.026731 -0.002198 -0.034908
			-0.028474 -0.016396 -0.038233
			-0.029114 -0.027193 -0.035550
			-0.027717 -0.037520 -0.033611
			-0.025850 -0.045095 -0.026255
			0.000198 -0.036531 -0.049219
			0.001478 -0.028868 -0.053559
			-0.026988 -0.050149 -0.016412
			-0.024407 -0.053521 -0.010854
			-0.018644 -0.055760 -0.011355
			0.004968 -0.053838 -0.031708
			0.003417 -0.049910 -0.038728
			0.001628 -0.043344 -0.044806
			0.004278 -0.056632 -0.025541
			-0.014860 -0.056972 -0.017285
			-0.007423 -0.058067 -0.020614
			-0.001448 -0.058574 -0.021811
			-0.009041 -0.001490 -0.054898
			-0.021321 0.001131 -0.045784
			-0.004400 -0.010699 -0.058073
			-0.002642 -0.019954 -0.059202
			-0.029835 -0.001061 -0.039166
			-0.031918 -0.017302 -0.040524
			-0.032973 -0.026708 -0.040780
			-0.031778 -0.036133 -0.040509
			-0.025698 -0.047147 -0.033922
			-0.028633 -0.053610 -0.019777
			-0.003391 -0.037972 -0.054462
			-0.001375 -0.030100 -0.058966
			-0.026176 -0.056835 -0.012744
			-0.019788 -0.059496 -0.012541
			-0.014491 -0.061094 -0.019720
			0.005826 -0.059920 -0.033557
			0.003103 -0.054441 -0.042731
			-0.001697 -0.048723 -0.049436
			0.005957 -0.062742 -0.027392
			-0.007130 -0.063738 -0.021377
			0.000869 -0.064376 -0.022555
			-0.011952 -0.005983 -0.057084
			-0.025625 -0.003633 -0.051676
			-0.030633 -0.007215 -0.045588
			-0.007053 -0.018084 -0.063129
			-0.031576 -0.015310 -0.046972
			-0.031231 -0.026177 -0.048736
			-0.029209 -0.034851 -0.048270
			-0.025770 -0.051667 -0.042120
			-0.023033 -0.058757 -0.030484
			-0.020990 -0.061844 -0.037839
			-0.027744 -0.060415 -0.020702
			-0.007965 -0.039424 -0.056614
			-0.004653 -0.029380 -0.062796
			-0.024537 -0.062049 -0.014433
			-0.015296 -0.066033 -0.022202
			0.006700 -0.067201 -0.037272
			0.006553 -0.069216 -0.027300
			0.002039 -0.065462 -0.045353
			-0.006306 -0.047836 -0.054011
			-0.001646 -0.064307 -0.050233
			-0.000474 -0.070301 -0.022466
			-0.008881 -0.068743 -0.022241
			-0.013700 -0.018831 -0.062621
			-0.022918 -0.017200 -0.059295
			-0.027659 -0.019199 -0.054538
			-0.011977 -0.032225 -0.061947
			-0.026380 -0.028578 -0.055709
			-0.020534 -0.063076 -0.045364
			-0.022227 -0.054934 -0.048581
			-0.024265 -0.041693 -0.052166
			-0.016988 -0.073187 -0.038867
			-0.020430 -0.066002 -0.027243
			-0.014560 -0.042835 -0.055677
			0.010535 -0.083414 -0.034986
			0.009794 -0.083414 -0.027596
			0.003248 -0.084573 -0.023110
			-0.007553 -0.065224 -0.052495
			-0.013219 -0.053013 -0.053126
			0.003353 -0.083305 -0.045750
			-0.005600 -0.085186 -0.024699
			-0.008618 -0.076417 -0.024962
			-0.019487 -0.031288 -0.060181
			-0.015438 -0.064257 -0.050076
			-0.011183 -0.088350 -0.032850
			-0.010910 -0.086157 -0.047756
			0.013108 -0.114743 -0.041548
			0.015419 -0.107347 -0.029507
			0.008348 -0.113007 -0.020690
			-0.004378 -0.085334 -0.051297
			0.001271 -0.115449 -0.048836
			-0.004242 -0.114730 -0.028744
			-0.004948 -0.116932 -0.045860
			0.018432 -0.145764 -0.041231
			0.022950 -0.143353 -0.029636
			0.013863 -0.143528 -0.017295
			0.003161 -0.146576 -0.025052
			0.009049 -0.147796 -0.044639
			0.001862 -0.149026 -0.039401
			0.023763 -0.178401 -0.038633
			0.027551 -0.175554 -0.027877
			0.018723 -0.175162 -0.015187
			0.007454 -0.175151 -0.022431
			0.006849 -0.177528 -0.034353
			0.013437 -0.176914 -0.041456
			0.026097 -0.206374 -0.035927
			0.029436 -0.204443 -0.021656
			0.018297 -0.204587 -0.013396
			0.010208 -0.206800 -0.019676
			0.009986 -0.208076 -0.031372
			0.016331 -0.207960 -0.038159
			0.028855 -0.241751 -0.031640
			0.031567 -0.239962 -0.018744
			0.021593 -0.238952 -0.009673
			0.012084 -0.239368 -0.015215
			0.011493 -0.242416 -0.027093
			0.019184 -0.242579 -0.034293
			0.030507 -0.274641 -0.026540
			0.032910 -0.273026 -0.015607
			0.022908 -0.270831 -0.005832
			0.012140 -0.272479 -0.011689
			0.012133 -0.275061 -0.024901
			0.020039 -0.276413 -0.030124
			0.019799 -0.307083 -0.026987
			0.027375 -0.306786 -0.025096
			0.031919 -0.305174 -0.010650
			0.025026 -0.303786 -0.001628
			0.015583 -0.303605 -0.004347
			0.009692 -0.304867 -0.013100
			0.011915 -0.306907 -0.023795
			0.017381 -0.340184 -0.024696
			0.028166 -0.340585 -0.022066
			0.031182 -0.341299 -0.007946
			0.023017 -0.338525 0.003912
			0.013484 -0.337084 0.001195
			0.008782 -0.337793 -0.008945
			0.008390 -0.339171 -0.020635
			0.014344 -0.367059 -0.024718
			0.028497 -0.369993 -0.018965
			0.027867 -0.368313 -0.002658
			0.023169 -0.365258 0.007835
			0.012367 -0.362424 0.009620
			0.006394 -0.367552 -0.006721
			0.005059 -0.366642 -0.021023
			0.000543 -0.379953 -0.023601
			0.013401 -0.381437 -0.026168
			0.027727 -0.386524 -0.021336
			0.027318 -0.384931 -0.000089
			0.019781 -0.378024 0.013264
			0.009849 -0.375358 0.017660
			0.005888 -0.377939 0.008682
			0.004424 -0.380700 -0.003846
			-0.005087 -0.386908 -0.029166
			0.009687 -0.394172 -0.032040
			-0.002669 -0.386950 -0.015098
			0.020622 -0.397334 -0.029252
			0.032979 -0.397236 -0.021764
			0.030668 -0.395803 -0.009090
			0.028852 -0.395923 0.001235
			0.024799 -0.391159 0.012540
			0.018507 -0.388099 0.020109
			0.004494 -0.387986 0.032806
			0.008873 -0.382211 0.022890
			0.002120 -0.386063 0.012870
			0.001341 -0.387863 -0.000826
			-0.011689 -0.391566 -0.029745
			-0.012043 -0.390087 -0.015004
			-0.000012 -0.398518 -0.036691
			0.007977 -0.402182 -0.034757
			-0.009001 -0.392127 -0.009721
			0.019083 -0.404484 -0.030013
			0.033013 -0.405952 -0.022082
			0.030282 -0.405345 -0.009529
			0.027706 -0.406431 -0.000509
			0.030495 -0.405352 0.007089
			0.023673 -0.399990 0.017330
			0.016862 -0.394771 0.026894
			0.015192 -0.402297 0.029647
			0.009474 -0.397918 0.036242
			0.000663 -0.394027 0.036910
			-0.003133 -0.391301 0.025381
			-0.004078 -0.392524 0.015956
			-0.004324 -0.394464 0.001322
			-0.019101 -0.397000 -0.028278
			-0.012201 -0.402755 -0.035804
			-0.020305 -0.395546 -0.022649
			-0.013405 -0.400649 -0.006946
			-0.019106 -0.397443 -0.012650
			-0.004638 -0.406224 -0.037651
			0.005351 -0.408443 -0.034783
			-0.004597 -0.400066 0.000939
			0.014930 -0.411899 -0.030402
			0.022029 -0.413354 -0.028489
			0.028654 -0.414204 -0.023344
			0.027290 -0.413645 -0.011479
			0.023063 -0.412977 -0.000810
			0.027345 -0.413810 0.005299
			0.031002 -0.414385 0.009390
			0.027493 -0.410568 0.015536
			0.022375 -0.407738 0.020644
			0.012910 -0.409421 0.030219
			0.004599 -0.402633 0.037656
			-0.009562 -0.397554 0.035445
			-0.017797 -0.394122 0.027329
			-0.005925 -0.393543 0.027810
			-0.012397 -0.392955 0.018325
			-0.010374 -0.398362 0.012409
			-0.023633 -0.406220 -0.030340
			-0.024829 -0.404414 -0.023850
			-0.015085 -0.410292 -0.031165
			-0.022913 -0.405472 -0.014551
			-0.005279 -0.408388 -0.006846
			-0.018777 -0.408765 -0.009343
			-0.009039 -0.413578 -0.032924
			0.000608 -0.416642 -0.032569
			-0.003374 -0.408863 0.008781
			0.001685 -0.410554 0.001192
			0.014144 -0.417720 -0.029234
			0.020506 -0.421304 -0.026459
			0.020320 -0.421241 -0.015203
			0.016804 -0.417887 -0.005158
			0.018392 -0.418868 0.003304
			0.026719 -0.421107 0.010708
			0.025173 -0.417231 0.017962
			0.019333 -0.413299 0.022204
			0.010499 -0.414317 0.030540
			0.000279 -0.411863 0.035795
			-0.009836 -0.409211 0.036135
			-0.022878 -0.408518 0.033199
			-0.019945 -0.395822 0.020329
			-0.019116 -0.403336 0.012623
			-0.023801 -0.412954 -0.028590
			-0.024301 -0.410552 -0.020176
			-0.018422 -0.417224 -0.032363
			-0.017464 -0.415397 -0.013002
			-0.007908 -0.416280 -0.008182
			-0.010247 -0.422335 -0.032872
			0.003122 -0.423059 -0.030607
			-0.015541 -0.415554 0.013741
			-0.020596 -0.409831 0.013861
			-0.006822 -0.422000 0.013324
			0.004845 -0.416357 0.000442
			0.004746 -0.417706 -0.006331
			0.011091 -0.423568 -0.026486
			0.011805 -0.424598 -0.018474
			0.010715 -0.418415 -0.000524
			0.009966 -0.421177 -0.009917
			0.011751 -0.421603 0.004636
			0.016995 -0.425625 0.012152
			0.019889 -0.425175 0.021427
			0.014933 -0.418886 0.025172
			0.007361 -0.420808 0.029203
			0.001052 -0.417849 0.033894
			-0.009801 -0.415455 0.035506
			-0.020294 -0.414476 0.033361
			-0.024600 -0.403513 0.020543
			-0.016898 -0.419300 -0.019108
			-0.011951 -0.418955 -0.013407
			-0.014215 -0.421751 -0.025103
			-0.001213 -0.420783 -0.011536
			-0.003405 -0.424534 -0.023942
			-0.016712 -0.420793 0.017877
			-0.023239 -0.415806 0.022626
			-0.006052 -0.426428 0.015538
			0.003957 -0.421652 0.006915
			0.003659 -0.424559 -0.017868
			0.006809 -0.430363 0.020567
			0.002206 -0.429172 0.015114
			0.009697 -0.428067 0.027419
			-0.006589 -0.425121 0.033699
			-0.015955 -0.422695 0.031046
			-0.018088 -0.422181 0.023891
			-0.007062 -0.422840 -0.017637
			-0.011246 -0.426908 0.020641
			-0.003908 -0.429494 0.020296
			-0.000866 -0.428210 0.031017
			-0.010385 -0.427177 0.026891
		</DataArray>
	</Points>
			<Polys>
				<DataArray type="Int32" Name="connectivity" format="ascii">
					2 1 0 
					0 3 2 
					0 1 4 
					4 5 0 
					5 3 0 
					6 1 2 
					7 1 6 
					8 1 7 
					9 1 8 
					10 1 9 
					11 1 10 
					4 1 11 
					3 12 2 
					12 13 2 
					2 13 6 
					3 14 12 
					5 15 3 
					15 14 3 
					11 16 4 
					16 5 4 
					16 17 5 
					17 15 5 
					13 18 6 
					6 18 7 
					18 19 7 
					7 19 8 
					19 20 8 
					8 20 9 
					20 21 9 
					9 21 10 
					21 22 10 
					22 23 10 
					10 23 11 
					23 16 11 
					14 24 12 