<?xml version="1.0"?>
<VTKFile type="PolyData" version="0.1" byte_order="LittleEndian" compressor="vtkZLibDataCompressor">
	<PolyData>
		<Piece NumberOfPoints="456" NumberOfVerts="0" NumberOfLines="0" NumberOfStrips="0" NumberOfPolys="908">
		<PointData Normals="Normals">
		<DataArray type="Float32" Name="Normals" NumberOfComponents="3" format="ascii">
			-0.148911 0.769227 0.621382
			-0.142679 0.339365 0.929771
			-0.433845 0.594978 0.676595
			-0.144587 0.849914 0.506697
			0.141440 0.731801 0.666680
			0.229016 0.816506 0.529972
			-0.561354 0.291650 0.774482
			-0.496227 0.020110 0.867960
			-0.276840 -0.128079 0.952342
			0.063515 0.009660 0.997935
			0.293417 0.216774 0.931083
			0.298137 0.478885 0.825702
			-0.453517 0.792925 0.406930
			-0.717745 0.522950 0.459745
			-0.129076 0.948950 0.287807
			0.209338 0.907854 0.363288
			0.525623 0.553330 0.646178
			0.524884 0.748387 0.405481
			-0.789881 0.089363 0.606715
			-0.588674 -0.235791 0.773217
			-0.236399 -0.321988 0.916754
			0.166848 -0.213477 0.962595
			0.399101 -0.077761 0.913603
			0.570616 0.196705 0.797310
			-0.461637 0.850344 0.252599
			-0.712300 0.665947 0.221681
			-0.905035 0.289224 0.311867
			-0.184993 0.982363 0.027199
			0.121345 0.989866 0.073755
			0.397644 0.910730 0.111580
			0.750106 0.443172 0.490856
			0.675843 0.723010 0.143152
			-0.836568 -0.164826 0.522480
			-0.553618 -0.429541 0.713444
			-0.178772 -0.518612 0.836112
			0.261199 -0.450298 0.853819
			0.574344 -0.218810 0.788829
			0.748858 0.079951 0.657891
			-0.492889 0.870040 0.009523
			-0.778779 0.626689 0.027635
			-0.959795 0.271757 0.070293
			-0.961561 -0.122609 0.245696
			-0.435298 0.857633 -0.273828
			-0.132722 0.960547 -0.244407
			0.155578 0.964886 -0.211636
			0.467655 0.862790 -0.192073
			0.918376 0.078440 0.387857
			0.883140 0.433464 0.179368
			0.767083 0.619514 -0.166691
			-0.759781 -0.470998 0.448211
			-0.432794 -0.643830 0.631009
			0.013091 -0.688124 0.725475
			0.437572 -0.566802 0.698044
			0.740385 -0.275454 0.613153
			-0.739596 0.623924 -0.252423
			-0.948333 0.249269 -0.196288
			-0.980771 -0.191422 -0.038018
			-0.816090 -0.494927 0.298402
			-0.392803 0.796145 -0.460281
			-0.726548 0.557281 -0.401952
			-0.071527 0.883379 -0.463168
			0.251384 0.847320 -0.467819
			0.557245 0.682565 -0.472845
			0.979049 -0.109928 0.171399
			0.963644 0.261126 -0.056607
			0.791923 0.408957 -0.453443
			-0.465480 -0.744877 0.478002
			0.011705 -0.775323 0.631457
			0.454557 -0.715697 0.530241
			0.796193 -0.471317 0.379391
			-0.943921 0.219278 -0.246841
			-0.970788 -0.214087 -0.108339
			-0.783673 -0.614363 0.091727
			-0.424212 -0.830276 0.361505
			-0.166193 0.725779 -0.667551
			-0.503751 0.572877 -0.646566
			-0.730089 0.295188 -0.616308
			0.109077 0.717589 -0.687873
			0.408748 0.584304 -0.701080
			0.617945 0.343994 -0.706974
			0.956956 -0.275352 -0.091738
			0.952086 0.072997 -0.296990
			0.768385 0.007563 -0.639943
			-0.013955 -0.869563 0.493625
			0.525197 -0.707669 0.472624
			0.793657 -0.571642 0.208171
			-0.911280 0.019490 -0.411326
			-0.814706 -0.497809 -0.297387
			-0.520395 -0.845054 -0.122768
			-0.307234 -0.951240 0.027382
			-0.379043 0.361126 -0.852006
			-0.104698 0.304211 -0.946833
			-0.583402 0.137306 -0.800493
			-0.761809 -0.220917 -0.608969
			0.054942 0.244516 -0.968087
			0.371155 0.214342 -0.903494
			0.632015 -0.013800 -0.774833
			0.765987 -0.613398 -0.192373
			0.845493 -0.312349 -0.433105
			0.730396 -0.348244 -0.587578
			-0.173205 -0.982265 0.071802
			0.114871 -0.990226 0.079101
			0.457292 -0.888146 0.045618
			-0.705469 -0.686539 -0.176006
			-0.408383 -0.909328 0.079661
			-0.214684 -0.975375 0.050550
			-0.476044 0.207058 -0.854699
			-0.211664 0.365731 -0.906333
			-0.851920 -0.063698 -0.519784
			-0.917957 -0.396135 -0.020765
			0.119495 0.466458 -0.876435
			0.674356 0.208394 -0.708390
			0.575504 -0.740534 -0.346995
			0.919100 -0.193260 -0.343375
			0.044326 -0.998263 0.038797
			0.304902 -0.945738 -0.112317
			-0.560462 -0.654160 0.507894
			0.026357 -0.842128 0.538634
			-0.639002 0.648301 -0.413983
			-0.927143 0.240605 -0.287252
			0.049438 0.927394 -0.370805
			-0.997441 -0.051127 0.049984
			-0.834240 -0.192038 0.516879
			0.650990 0.717155 -0.248796
			0.981809 0.187824 0.027806
			0.848947 -0.517302 -0.108115
			0.974864 -0.198466 0.101247
			0.603762 -0.747816 0.276120
			-0.195450 -0.452709 0.869974
			0.478652 -0.485831 0.731342
			-0.151787 0.987879 0.032507
			-0.734495 0.677232 -0.043288
			-0.945491 0.300473 -0.125547
			-0.982787 0.184618 -0.006762
			0.512649 0.851656 0.108960
			-0.932491 0.073970 0.353538
			-0.589913 -0.089582 0.802483
			0.866022 0.482874 0.129764
			0.991098 -0.127231 0.039207
			0.909466 -0.311033 0.275919
			0.975770 -0.175114 0.131179
			0.955531 -0.289728 0.054932
			0.255177 -0.378115 0.889895
			0.767654 -0.270705 0.580883
			-0.125633 0.949417 0.287790
			0.513715 0.837863 0.184613
			-0.543484 0.516790 0.661478
			-0.847956 0.306157 0.432712
			-0.734513 0.551585 0.395278
			-0.873971 0.318605 0.366969
			0.848619 0.524233 -0.070878
			-0.871440 0.246803 0.423888
			-0.446315 0.193758 0.873647
			0.981001 -0.038303 -0.190184
			0.978169 -0.202826 -0.045249
			0.963061 -0.255535 -0.084940
			0.786725 -0.309424 0.534155
			0.983894 -0.122006 0.130639
			0.371073 -0.286114 0.883427
			0.073809 0.904032 0.421044
			0.474334 0.874579 -0.100593
			0.865518 0.341668 -0.366253
			0.223404 0.333799 0.915789
			-0.030341 -0.130065 0.991041
			-0.066789 0.324838 0.943409
			-0.446103 0.414477 0.793221
			-0.778725 0.320957 0.539050
			0.948878 -0.058699 -0.310136
			-0.657662 0.554098 0.510348
			-0.578864 0.647491 0.495652
			0.002323 0.293772 0.955873
			0.990414 -0.095578 -0.099722
			0.961986 -0.180815 -0.204665
			0.969204 -0.176477 -0.171758
			0.982638 -0.131078 -0.131307
			0.446305 -0.248747 0.859615
			0.446990 -0.157928 0.880488
			0.774549 0.083877 0.626928
			0.276934 0.954323 -0.112138
			0.600336 0.357215 -0.715538
			0.814354 0.020803 -0.579996
			0.041358 0.897918 0.438215
			-0.158091 0.127130 0.979207
			-0.407997 0.102726 0.907185
			-0.718219 0.089631 0.690020
			-0.849394 0.070310 0.523055
			-0.898637 0.382251 0.215256
			0.943483 -0.244765 -0.223449
			0.932324 -0.100969 -0.347241
			-0.718256 0.561258 0.411216
			-0.408528 0.248965 0.878135
			0.461305 -0.208986 0.862277
			0.988679 0.130388 0.074246
			0.976213 0.036310 -0.213749
			0.945386 -0.104096 -0.308883
			0.931242 -0.009014 0.364289
			0.374370 -0.318571 0.870838
			0.151010 -0.143625 0.978043
			0.379676 -0.005442 0.925104
			0.159482 0.673664 -0.721624
			-0.274166 0.906941 -0.319829
			0.458573 0.241539 -0.855201
			0.744325 0.188479 -0.640669
			-0.814067 0.580767 0.002295
			-0.962979 0.020405 0.268800
			-0.990933 -0.032436 0.130378
			-0.972475 -0.214257 0.091579
			-0.972805 -0.225381 -0.053418
			-0.990796 0.026942 -0.132659
			0.769536 -0.351936 -0.532875
			0.863951 -0.162193 -0.476742
			-0.816288 -0.205564 0.539831
			0.123292 -0.491766 0.861954
			0.398303 -0.441075 0.804244
			0.981996 0.162720 0.095951
			0.961395 0.152756 -0.228878
			0.853652 -0.021571 -0.520396
			0.745913 0.064090 0.662953
			0.010794 -0.266899 0.963664
			0.224516 -0.062286 0.972478
			0.128707 0.430032 -0.893592
			-0.357528 0.571768 -0.738414
			-0.771616 0.370556 -0.517007
			0.457268 0.206845 -0.864940
			-0.939392 0.083701 -0.332470
			-0.889087 -0.070555 -0.452267
			-0.827704 -0.261404 -0.496563
			-0.887087 -0.349557 -0.301474
			-0.881485 -0.308065 -0.357883
			-0.930581 -0.348906 -0.110832
			-0.892366 -0.428433 -0.141872
			0.436511 -0.403546 -0.804120
			0.518102 -0.336986 -0.786137
			-0.435313 -0.772422 0.462457
			-0.022582 -0.700985 0.712819
			0.983283 0.171309 -0.061716
			0.809392 0.137133 0.571033
			0.887664 0.067481 -0.455521
			0.417204 -0.129440 -0.899548
			0.743466 0.003220 -0.668766
			0.201683 -0.035105 0.978822
			-0.326242 -0.309779 0.893086
			-0.106848 0.189653 -0.976020
			-0.498309 0.151717 -0.853622
			-0.685088 0.059584 -0.726019
			0.040034 -0.295981 -0.954354
			-0.681671 -0.201557 -0.703349
			-0.809740 -0.432174 -0.396922
			-0.616275 -0.302216 -0.727234
			-0.529061 -0.325601 -0.783632
			-0.899956 -0.412672 -0.140649
			-0.661919 -0.737422 0.134428
			-0.025869 -0.383573 -0.923149
			0.956097 0.164425 -0.242574
			0.809282 0.204271 0.550759
			0.183460 0.077452 0.979971
			0.215534 -0.097243 -0.971643
			-0.148404 -0.210050 -0.966362
			0.705991 0.056416 -0.705971
			-0.569659 -0.146282 0.808758
			-0.785525 -0.351361 0.509407
			-0.342810 -0.209236 -0.915806
			-0.478269 -0.280837 -0.832099
			-0.950478 -0.240442 0.196928
			-0.715822 -0.248324 -0.652636
			0.861878 0.145747 -0.485722
			0.911732 0.200684 0.358426
			-0.061736 0.065146 0.995964
			0.082311 -0.082440 -0.993191
			0.203963 -0.058781 -0.977212
			-0.906243 -0.178038 0.383438
			-0.784995 -0.254496 -0.564815
			0.768199 0.078621 -0.635365
			0.961233 0.184783 0.204662
			0.050457 0.112054 0.992420
			-0.890444 -0.108531 0.441963
			-0.018616 -0.147147 -0.988940
			-0.862110 -0.246037 -0.442981
			0.746127 0.005436 -0.665782
			0.963679 0.126313 0.235304
			0.099216 0.096770 0.990349
			-0.898315 -0.066945 0.434222
			-0.905313 -0.175559 -0.386766
			-0.165863 -0.153497 -0.974129
			0.755633 -0.018608 -0.654731
			0.924643 0.116524 0.362570
			-0.011791 0.124359 0.992167
			-0.912329 -0.007287 0.409394
			-0.903225 -0.120971 -0.411766
			-0.214651 -0.138864 -0.966769
			0.760098 -0.044537 -0.648280
			0.936841 0.088457 0.338384
			0.037456 0.124621 0.991497
			-0.895158 0.023892 0.445108
			-0.892148 -0.082814 -0.444086
			-0.182022 -0.140804 -0.973161
			0.629478 -0.094735 -0.771222
			0.975514 0.031544 0.217663
			0.126494 0.145611 0.981221
			-0.831410 0.081749 0.549612
			-0.926090 -0.012995 -0.377080
			-0.234957 -0.098234 -0.967029
			0.087270 -0.086393 -0.992432
			0.845887 -0.069389 -0.528829
			0.954871 0.010714 0.296827
			0.267415 0.145126 0.952590
			-0.665271 0.123320 0.736347
			-0.994664 0.052881 0.088580
			-0.650006 -0.028449 -0.759395
			-0.040930 -0.051620 -0.997827
			0.755947 -0.083522 -0.649283
			0.985331 -0.017733 0.169734
			0.405504 0.159442 0.900081
			-0.667085 0.194331 0.719189
			-0.967372 0.093294 0.235559
			-0.803216 0.052035 -0.593411
			-0.081026 0.090776 -0.992570
			0.684442 0.000842 -0.729066
			0.980510 -0.037185 0.192916
			0.637894 0.160356 0.753245
			-0.543838 0.386152 0.745069
			-0.966391 0.173686 0.189527
			-0.932701 0.199697 -0.300317
			-0.590877 0.540418 -0.599010
			0.214011 0.242130 -0.946346
			0.881371 0.239849 -0.407009
			0.963320 0.134555 0.232186
			0.791256 0.156127 0.591218
			-0.042414 0.539747 0.840758
			-0.907587 0.372638 0.193458
			-0.926169 0.360711 0.109993
			-0.422989 0.794153 -0.436349
			0.138045 0.408202 -0.902394
			-0.630784 0.742072 0.226804
			0.419725 0.198857 -0.885600
			0.824058 0.175349 -0.538685
			0.980229 0.098965 0.171342
			0.979342 0.136491 0.149198
			0.818971 0.297415 0.490746
			0.716498 0.419877 0.557076
			0.138444 0.693490 0.707040
			-0.850790 0.518892 0.083110
			-0.795301 0.603878 0.053168
			-0.761096 0.637085 0.121878
			-0.383413 0.688164 -0.615974
			-0.515778 0.810528 0.277518
			0.050263 0.345463 -0.937085
			0.322701 0.040160 -0.945649
			-0.642756 0.603285 0.472136
			0.419016 -0.051687 -0.906506
			0.909619 -0.137545 -0.392013
			0.917051 -0.322741 0.234214
			0.954463 -0.280670 -0.101117
			0.997017 0.060748 0.047611
			0.822807 0.185502 0.537195
			0.731117 0.224889 0.644122
			0.701653 0.011395 0.712429
			0.358584 0.147170 0.921823
			-0.257050 0.696980 0.669436
			-0.605939 0.779822 0.157208
			-0.580602 0.802091 -0.139831
			-0.872153 0.488057 0.033904
			-0.674534 0.527057 -0.516928
			-0.358019 0.132901 -0.924207
			-0.775241 0.631265 -0.022517
			-0.563575 0.202639 0.800825
			-0.716564 0.440556 0.540783
			-0.058421 -0.210649 -0.975814
			0.227526 -0.275940 -0.933857
			-0.958021 -0.233465 0.166404
			0.264693 -0.217120 -0.939572
			0.401462 -0.184157 -0.897170
			0.820398 -0.532809 -0.207514
			0.733242 -0.624641 0.268663
			0.728552 -0.660640 -0.181013
			0.744826 -0.383402 -0.546111
			0.962808 -0.208637 0.171675
			0.785329 -0.028527 0.618422
			0.763080 0.025582 0.645797
			0.610184 -0.206803 0.764792
			0.252214 -0.124214 0.959666
			-0.279641 0.194416 0.940215
			-0.464185 0.746288 0.477061
			-0.252754 0.963816 0.084695
			-0.296464 0.871868 -0.389816
			-0.631738 0.394715 -0.667163
			-0.673522 0.047702 -0.737627
			-0.973386 0.218788 -0.068200
			-0.311174 -0.135881 -0.940589
			-0.918013 0.044326 0.394065
			-0.516009 -0.248063 0.819878
			-0.542521 -0.149172 0.826691
			-0.090208 -0.155848 -0.983653
			0.143911 -0.219007 -0.965052
			-0.564659 -0.069603 -0.822385
			-0.913628 -0.396528 -0.089714
			0.229721 -0.242773 -0.942491
			0.420790 -0.673850 -0.607341
			0.484688 -0.863571 0.139003
			0.360401 -0.908773 0.210337
			0.307624 -0.836201 -0.454023
			0.661565 -0.700060 -0.268787
			0.751080 -0.104584 0.651876
			0.683284 -0.141916 0.716229
			0.526336 -0.274936 0.804600
			0.242898 -0.258192 0.935060
			-0.179688 -0.023060 0.983454
			-0.694403 0.163314 0.700809
			-0.628934 0.765931 -0.133385
			-0.501050 0.346810 -0.792888
			-0.850699 -0.313704 -0.421784
			-0.864364 -0.438283 0.246543
			-0.563708 -0.400668 -0.722286
			-0.638904 -0.595824 0.486616
			-0.361190 -0.534972 0.763771
			-0.143466 -0.650226 -0.746072
			0.161024 -0.674351 -0.720640
			-0.491814 -0.230179 -0.839724
			-0.631424 -0.231223 -0.740161
			-0.453779 -0.488929 -0.745005
			-0.575644 -0.771896 -0.269834
			-0.390167 -0.791064 0.471155
			0.158063 -0.971887 -0.174505
			0.166772 -0.969012 0.182220
			-0.049621 -0.971722 -0.230856
			-0.072096 -0.922977 0.378041
			0.062319 -0.838021 -0.542067
			0.266587 -0.891965 -0.365144
			0.623621 -0.662234 0.415383
			0.565219 -0.130603 0.814537
			0.436975 -0.285951 0.852809
			0.164700 -0.271719 0.948179
			-0.107978 -0.241779 0.964304
			-0.770131 -0.382196 0.510709
			-0.980334 0.080624 -0.180123
			-0.608811 -0.763817 0.214321
			-0.420631 -0.782099 0.459774
			-0.431633 -0.902028 0.006244
			-0.165624 -0.826862 0.537464
			-0.098559 -0.994209 -0.042845
			-0.560777 -0.557240 -0.612383
			-0.864281 -0.465356 -0.190952
			-0.383943 -0.684735 -0.619456
			-0.293627 -0.694379 -0.656978
			-0.054730 -0.975482 0.213165
			0.141340 -0.986704 -0.080234
			-0.124945 -0.862297 -0.490746
			0.416043 -0.462902 0.782707
			0.043932 -0.452698 0.890581
			-0.437052 -0.569602 0.696088
			-0.714701 -0.698365 0.038583
			-0.252713 -0.919024 0.302542
			-0.527416 -0.803691 -0.275524
			-0.224722 -0.967776 -0.113621
			-0.024575 -0.900940 0.433246
			-0.385951 -0.899922 0.202935
		</DataArray>
	</PointData>
	<Points>
		<DataArray type="Float32" NumberOfComponents="3" format="ascii">
			-0.006156 0.016249 0.014765
			-0.002591 0.007692 0.020302
			-0.012231 0.013279 0.014922
			-0.004798 0.018877 0.011572
			0.001208 0.016125 0.016223
			0.006966 0.015966 0.014198
			-0.015926 0.006291 0.015934
			-0.013606 -0.002121 0.019253
			-0.005207 -0.006548 0.021930
			0.003053 -0.000887 0.023365
			0.008281 0.004164 0.020406
			0.007207 0.012429 0.017610
			-0.011148 0.016495 0.011341
			-0.017351 0.010363 0.011740
			-0.003720 0.021308 0.005797
			0.005112 0.019701 0.008538
			0.013277 0.010411 0.015264
			0.012451 0.016048 0.009582
			-0.019173 0.001715 0.013855
			-0.014887 -0.005448 0.017296
			-0.005133 -0.009522 0.020958
			0.003585 -0.006751 0.022588
			0.009873 -0.003108 0.020921
			0.013278 0.001930 0.018851
			-0.010978 0.019192 0.005426
			-0.017383 0.013950 0.005881
			-0.021302 0.005730 0.008158
			-0.003122 0.022348 0.000055
			0.003058 0.022200 0.000433
			0.009540 0.020082 0.001554
			0.017920 0.009689 0.010067
			0.016648 0.015206 0.002840
			-0.019942 -0.004399 0.012204
			-0.013631 -0.010546 0.016337
			-0.003869 -0.012411 0.019798
			0.005246 -0.010553 0.020637
			0.013346 -0.005899 0.018236
			0.019145 0.001342 0.013267
			-0.010224 0.020270 -0.000308
			-0.017132 0.015534 -0.000087
			-0.022439 0.006679 0.001963
			-0.022779 -0.002225 0.006074
			-0.010054 0.019605 -0.006875
			-0.003435 0.021704 -0.005880
			0.003214 0.021757 -0.005764
			0.009636 0.019940 -0.005548
			0.021325 -0.000449 0.010493
			0.020777 0.009162 0.004840
			0.017864 0.013512 -0.004999
			-0.018441 -0.010096 0.010860
			-0.011226 -0.014178 0.014991
			-0.001682 -0.016388 0.017103
			0.009291 -0.012908 0.017259
			0.016464 -0.008721 0.014581
			-0.016502 0.014896 -0.006507
			-0.022029 0.006621 -0.003939
			-0.023166 -0.003732 0.000239
			-0.019327 -0.011757 0.006351
			-0.010809 0.016801 -0.011784
			-0.018048 0.011200 -0.009704
			-0.003072 0.019490 -0.011785
			0.005167 0.018861 -0.011973
			0.012713 0.015084 -0.012074
			0.022728 -0.004367 0.004344
			0.022276 0.005696 -0.002333
			0.018026 0.009620 -0.011481
			-0.012066 -0.016009 0.012157
			-0.001399 -0.018270 0.015082
			0.010490 -0.015782 0.013713
			0.019138 -0.010242 0.009979
			-0.022265 0.001321 -0.007035
			-0.022041 -0.007808 -0.002067
			-0.017823 -0.014437 0.007154
			-0.009195 -0.017899 0.012017
			-0.002562 0.016828 -0.015891
			-0.009800 0.014765 -0.015445
			-0.016554 0.008939 -0.013919
			0.003912 0.015565 -0.017284
			0.008818 0.013495 -0.017270
			0.013271 0.008292 -0.017376
			0.022593 -0.004878 -0.004394
			0.021873 0.001825 -0.008757
			0.018141 -0.000378 -0.015220
			0.002631 -0.019318 0.013218
			0.013318 -0.017412 0.007412
			0.019916 -0.012535 0.002295
			-0.021194 0.000763 -0.011265
			-0.021731 -0.006854 -0.006558
			-0.017082 -0.014041 0.000830
			-0.009623 -0.017599 0.006854
			-0.009955 0.010782 -0.018432
			-0.002121 0.012226 -0.019656
			-0.015312 0.004045 -0.016185
			-0.017525 -0.003625 -0.014437
			0.004566 0.009989 -0.021023
			0.010743 0.005694 -0.020072
			0.013400 -0.001754 -0.019482
			0.018026 -0.015554 -0.001816
			0.019879 -0.007359 -0.010420
			0.015436 -0.009257 -0.014932
			-0.001442 -0.019788 0.008588
			0.004945 -0.020501 0.007866
			0.013030 -0.018739 0.003561
			-0.016866 -0.012253 -0.006464
			-0.010900 -0.016572 -0.000596
			-0.003921 -0.019128 0.002118
			-0.009069 -0.001319 -0.019104
			-0.002055 0.003803 -0.019127
			-0.013806 -0.009408 -0.016889
			-0.013140 -0.016722 -0.010637
			0.003989 0.001468 -0.020624
			0.010473 -0.002059 -0.021557
			0.014633 -0.015612 -0.009265
			0.012708 -0.009303 -0.018472
			0.002980 -0.019542 0.001722
			0.010050 -0.018849 -0.002072
			-0.008357 -0.020660 -0.006188
			0.000849 -0.021786 -0.005412
			-0.006259 -0.007323 -0.027445
			-0.011695 -0.015170 -0.024384
			0.001535 -0.003081 -0.028013
			-0.012150 -0.021184 -0.018113
			-0.010818 -0.027233 -0.014375
			0.008811 -0.006393 -0.028829
			0.011508 -0.014049 -0.027750
			0.012113 -0.015123 -0.013662
			0.010518 -0.021305 -0.025442
			0.009074 -0.019496 -0.008805
			-0.006229 -0.030086 -0.011658
			0.001266 -0.030820 -0.013088
			0.000930 -0.003809 -0.034769
			-0.005830 -0.008844 -0.032311
			-0.010877 -0.017052 -0.028801
			-0.012841 -0.025046 -0.025026
			0.007401 -0.005939 -0.036589
			-0.012805 -0.033184 -0.017775
			-0.010857 -0.035639 -0.014586
			0.012291 -0.010334 -0.036394
			0.014449 -0.016472 -0.035927
			0.008150 -0.028023 -0.020791
			0.008858 -0.032025 -0.029540
			0.011295 -0.022463 -0.033969
			-0.000503 -0.038989 -0.016187
			0.006500 -0.037946 -0.021151
			0.001630 -0.002509 -0.041305
			0.007521 -0.003920 -0.042238
			-0.006720 -0.007025 -0.039905
			-0.008798 -0.015071 -0.040028
			-0.012081 -0.023602 -0.035026
			-0.015461 -0.033027 -0.027054
			0.012142 -0.007522 -0.043397
			-0.014966 -0.040066 -0.021218
			-0.014076 -0.044448 -0.016018
			0.013322 -0.012586 -0.044078
			0.008877 -0.028440 -0.037981
			0.011005 -0.019408 -0.042534
			0.005521 -0.045394 -0.022487
			0.007869 -0.037534 -0.031232
			-0.004612 -0.046123 -0.017779
			-0.000535 -0.000586 -0.046793
			0.006159 -0.000865 -0.049643
			0.010090 -0.007116 -0.050380
			-0.014711 -0.001667 -0.039286
			-0.015458 -0.010885 -0.043473
			-0.016942 -0.020288 -0.042226
			-0.019814 -0.027359 -0.036605
			-0.019186 -0.035113 -0.032472
			0.010207 -0.016586 -0.049917
			-0.018274 -0.043109 -0.025364
			-0.017942 -0.047499 -0.020405
			-0.017356 -0.050377 -0.013849
			0.007397 -0.033175 -0.043750
			0.007888 -0.025991 -0.047417
			0.007957 -0.047537 -0.032108
			0.007453 -0.040207 -0.037780
			-0.011187 -0.052402 -0.018029
			0.000584 -0.053581 -0.021263
			0.007218 -0.051286 -0.025614
			0.000410 0.000384 -0.051295
			0.007787 -0.008912 -0.054151
			0.008299 -0.019029 -0.052877
			-0.014313 0.001529 -0.041385
			-0.022301 -0.002198 -0.037892
			-0.023798 -0.016396 -0.041306
			-0.024868 -0.027193 -0.038639
			-0.023811 -0.037520 -0.036483
			-0.022835 -0.045095 -0.028915
			0.005680 -0.036531 -0.048891
			0.007552 -0.028868 -0.053044
			-0.025068 -0.050149 -0.019218
			-0.023112 -0.053521 -0.013392
			-0.017336 -0.055760 -0.013265
			0.008315 -0.053838 -0.030999
			0.007563 -0.049910 -0.038136
			0.006522 -0.043344 -0.044359
			0.006952 -0.056632 -0.024946
			-0.012953 -0.056972 -0.018756
			-0.005213 -0.058067 -0.021281
			0.000852 -0.058574 -0.021842
			-0.002307 -0.001490 -0.055590
			-0.015567 0.001131 -0.048047
			0.002531 -0.010699 -0.058184
			0.004253 -0.019954 -0.059108
			-0.024852 -0.001061 -0.042503
			-0.026962 -0.017302 -0.043977
			-0.028100 -0.026708 -0.044279
			-0.027062 -0.036133 -0.043800
			-0.021871 -0.047147 -0.036507
			-0.026364 -0.053610 -0.022714
			0.002675 -0.037972 -0.054502
			0.005311 -0.030100 -0.058743
			-0.024684 -0.056835 -0.015436
			-0.018364 -0.059496 -0.014546
			-0.012354 -0.061094 -0.021124
			0.009307 -0.059920 -0.032763
			0.007626 -0.054441 -0.042160
			0.003647 -0.048723 -0.049330
			0.008770 -0.062742 -0.026625
			-0.004877 -0.063738 -0.022000
			0.003197 -0.064376 -0.022344
			-0.005006 -0.005983 -0.058106
			-0.019193 -0.003633 -0.054393
			-0.024951 -0.007215 -0.048930
			0.000362 -0.018084 -0.063521
			-0.025839 -0.015310 -0.050356
			-0.025452 -0.026177 -0.051988
			-0.023625 -0.034851 -0.051235
			-0.021113 -0.051667 -0.044637
			-0.019704 -0.058757 -0.032734
			-0.016935 -0.061844 -0.039819
			-0.025427 -0.060415 -0.023489
			-0.001657 -0.039424 -0.057147
			0.002501 -0.029380 -0.062919
			-0.022902 -0.062049 -0.016908
			-0.012929 -0.066033 -0.023659
			0.010489 -0.067201 -0.036388
			0.009304 -0.069216 -0.026489
			0.006704 -0.065462 -0.044902
			-0.000428 -0.047836 -0.054376
			0.003558 -0.064307 -0.050134
			0.001814 -0.070301 -0.022397
			-0.006563 -0.068743 -0.023032
			-0.006313 -0.018831 -0.063790
			-0.015827 -0.017200 -0.061568
			-0.021125 -0.019199 -0.057386
			-0.004923 -0.032225 -0.062902
			-0.019876 -0.028578 -0.058347
			-0.015715 -0.063076 -0.047250
			-0.016946 -0.054934 -0.050665
			-0.018384 -0.041693 -0.054517
			-0.012980 -0.073187 -0.040382
			-0.017517 -0.066002 -0.029201
			-0.008371 -0.042835 -0.056937
			0.013911 -0.083414 -0.033786
			0.012450 -0.083414 -0.026505
			0.005489 -0.084573 -0.022683
			-0.002097 -0.065224 -0.052994
			-0.007477 -0.053013 -0.054233
			0.007820 -0.083305 -0.045201
			-0.003167 -0.085186 -0.025127
			-0.006080 -0.076417 -0.025699
			-0.012568 -0.031288 -0.061996
			-0.010175 -0.064257 -0.051404
			-0.007960 -0.088350 -0.033776
			-0.006219 -0.086157 -0.048590
			0.016752 -0.114743 -0.040217
			0.018042 -0.107347 -0.027981
			0.010165 -0.113007 -0.019861
			0.000639 -0.085334 -0.051480
			0.005599 -0.115449 -0.048531
			-0.001669 -0.114730 -0.029008
			-0.000879 -0.116932 -0.046118
			0.021673 -0.145764 -0.039624
			0.025267 -0.143353 -0.027687
			0.015213 -0.143528 -0.016121
			0.005150 -0.146576 -0.024720
			0.012566 -0.147796 -0.043779
			0.004972 -0.149026 -0.039131
			0.026432 -0.178401 -0.036858
			0.029472 -0.175554 -0.025837
			0.019762 -0.175162 -0.013808
			0.009040 -0.175151 -0.021840
			0.009267 -0.177528 -0.033781
			0.016348 -0.176914 -0.040397
			0.028294 -0.206374 -0.034224
			0.030744 -0.204443 -0.019755
			0.019105 -0.204587 -0.012215
			0.011417 -0.206800 -0.019000
			0.011914 -0.208076 -0.030691
			0.018670 -0.207960 -0.037071
			0.030473 -0.241751 -0.030085
			0.032514 -0.239962 -0.017048
			0.022077 -0.238952 -0.008511
			0.012875 -0.239368 -0.014552
			0.012891 -0.242416 -0.026456
			0.020946 -0.242579 -0.033246
			0.031617 -0.274641 -0.025207
			0.033556 -0.273026 -0.014165
			0.023142 -0.270831 -0.004818
			0.012637 -0.272479 -0.011149
			0.013187 -0.275061 -0.024359
			0.021298 -0.276413 -0.029247
			0.020693 -0.307083 -0.026308
			0.028204 -0.306786 -0.024161
			0.032263 -0.305174 -0.009556
			0.025067 -0.303786 -0.000764
			0.015724 -0.303605 -0.003806
			0.010135 -0.304867 -0.012761
			0.012708 -0.306907 -0.023381
			0.017968 -0.340184 -0.024272
			0.028685 -0.340585 -0.021387
			0.031361 -0.341299 -0.007206
			0.022915 -0.338525 0.004475
			0.013451 -0.337084 0.001530
			0.009001 -0.337793 -0.008725
			0.008888 -0.339171 -0.020426
			0.014744 -0.367059 -0.024482
			0.028786 -0.369993 -0.018524
			0.027905 -0.368313 -0.002215
			0.023034 -0.365258 0.008223
			0.012196 -0.362424 0.009836
			0.006501 -0.367552 -0.006617
			0.005402 -0.366642 -0.020937
			0.000839 -0.379953 -0.023592
			0.013717 -0.381437 -0.026004
			0.027952 -0.386524 -0.021040
			0.027317 -0.384931 0.000213
			0.019606 -0.378024 0.013521
			0.009604 -0.375358 0.017795
			0.005774 -0.377939 0.008758
			0.004471 -0.380700 -0.003791
			-0.004780 -0.386908 -0.029218
			0.009956 -0.394172 -0.031957
			-0.002510 -0.386950 -0.015125
			0.020841 -0.397334 -0.029097
			0.033142 -0.397236 -0.021515
			0.030739 -0.395803 -0.008846
			0.028841 -0.395923 0.001463
			0.024681 -0.391159 0.012769
			0.018301 -0.388099 0.020296
			0.004159 -0.387986 0.032850
			0.008601 -0.382211 0.022994
			0.001981 -0.386063 0.012892
			0.001349 -0.387863 -0.000813
			-0.011416 -0.391566 -0.029851
			-0.011898 -0.390087 -0.015119
			0.000250 -0.398518 -0.036690
			0.008189 -0.402182 -0.034708
			-0.008913 -0.392127 -0.009802
			0.019246 -0.404484 -0.029908
			0.033123 -0.405952 -0.021916
			0.030331 -0.405345 -0.009372
			0.027708 -0.406431 -0.000374
			0.030457 -0.405352 0.007247
			0.023556 -0.399990 0.017489
			0.016640 -0.394771 0.027032
			0.015012 -0.402297 0.029738
			0.009208 -0.397918 0.036311
			0.000351 -0.394027 0.036914
			-0.003367 -0.391301 0.025351
			-0.004220 -0.392524 0.015919
			-0.004335 -0.394464 0.001286
			-0.018885 -0.397000 -0.028422
			-0.011988 -0.402755 -0.035876
			-0.020123 -0.395546 -0.022811
			-0.013359 -0.400649 -0.007033
			-0.019011 -0.397443 -0.012792
			-0.004452 -0.406224 -0.037674
			0.005501 -0.408443 -0.034760
			-0.004604 -0.400066 0.000908
			0.015031 -0.411899 -0.030353
			0.022111 -0.413354 -0.028425
			0.028715 -0.414204 -0.023268
			0.027322 -0.413645 -0.011402
			0.023065 -0.412977 -0.000741
			0.027330 -0.413810 0.005374
			0.030978 -0.414385 0.009470
			0.027436 -0.410568 0.015637
			0.022282 -0.407738 0.020744
			0.012788 -0.409421 0.030271
			0.004374 -0.402633 0.037683
			-0.009825 -0.397554 0.035373
			-0.018027 -0.394122 0.027178
			-0.006164 -0.393543 0.027758
			-0.012557 -0.392955 0.018216
			-0.010463 -0.398362 0.012334
			-0.023483 -0.406220 -0.030456
			-0.024699 -0.404414 -0.023985
			-0.014968 -0.410292 -0.031221
			-0.022838 -0.405472 -0.014669
			-0.005249 -0.408388 -0.006869
			-0.018737 -0.408765 -0.009422
			-0.008947 -0.413578 -0.032949
			0.000671 -0.416642 -0.032568
			-0.003410 -0.408863 0.008767
			0.001680 -0.410554 0.001198
			0.014192 -0.417720 -0.029211
			0.020522 -0.421304 -0.026447
			0.020329 -0.421241 -0.015191
			0.016812 -0.417887 -0.005131
			0.018387 -0.418868 0.003327
			0.026712 -0.421107 0.010725
			0.025142 -0.417231 0.018007
			0.019268 -0.413299 0.022260
			0.010419 -0.414317 0.030568
			0.000160 -0.411863 0.035796
			-0.009983 -0.409211 0.036095
			-0.023020 -0.408518 0.033100
			-0.020106 -0.395822 0.020170
			-0.019189 -0.403336 0.012512
			-0.023715 -0.412954 -0.028662
			-0.024226 -0.410552 -0.020265
			-0.018365 -0.417224 -0.032395
			-0.017434 -0.415397 -0.013042
			-0.007892 -0.416280 -0.008198
			-0.010237 -0.422335 -0.032875
			0.003125 -0.423059 -0.030607
			-0.015572 -0.415554 0.013706
			-0.020650 -0.409831 0.013781
			-0.006827 -0.422000 0.013322
			0.004844 -0.416357 0.000451
			0.004757 -0.417706 -0.006324
			0.011089 -0.423568 -0.026487
			0.011798 -0.424598 -0.018479
			0.010715 -0.418415 -0.000509
			0.009972 -0.421177 -0.009911
			0.011748 -0.421603 0.004642
			0.017003 -0.425625 0.012140
			0.019901 -0.425175 0.021417
			0.014900 -0.418886 0.025191
			0.007340 -0.420808 0.029209
			0.000999 -0.417849 0.033895
			-0.009881 -0.415455 0.035483
			-0.020379 -0.414476 0.033309
			-0.024717 -0.403513 0.020402
			-0.016876 -0.419300 -0.019127
			-0.011934 -0.418955 -0.013422
			-0.014203 -0.421751 -0.025110
			-0.001204 -0.420783 -0.011537
			-0.003414 -0.424534 -0.023941
			-0.016725 -0.420793 0.017865
			-0.023288 -0.415806 0.022575
			-0.006038 -0.426428 0.015544
			0.003953 -0.421652 0.006917
			0.003652 -0.424559 -0.017870
			0.006851 -0.430363 0.020553
			0.002232 -0.429172 0.015111
			0.009734 -0.428067 0.027405
			-0.006571 -0.425121 0.033703
			-0.015960 -0.422695 0.031043
			-0.018096 -0.422181 0.023885
			-0.007059 -0.422840 -0.017638
			-0.011224 -0.426908 0.020652
			-0.003872 -0.429494 0.020303
			-0.000823 -0.428210 0.031018
			-0.010355 -0.427177 0.026902
		</DataArray>
	</Points>
			<Polys>
				<DataArray type="Int32" Name="connectivity" format="ascii">
					2 1 0 
					0 3 2 
					0 1 4 
					4 5 0 
					5 3 0 
					6 1 2 
					7 1 6 
					8 1 7 
					9 1 8 
					10 1 9 
					11 1 10 
					4 1 11 
					3 12 2 
					12 13 2 
					2 13 6 
					3 14 12 
					5 15 3 
					15 14 3 
					11 16 4 
					16 5 4 
					16 17 5 
					17 15 5 
					13 18 6 
					6 18 7 
					18 19 7 
					7 19 8 
					19 20 8 
					8 20 9 
					20 21 9 
					9 21 10 
					21 22 10 
					22 23 10 
					10 23 11 
					23 16 11 
					14 24 12 
					12 24 13 