<?xml version="1.0"?>
<VTKFile type="PolyData" version="0.1" byte_order="LittleEndian" compressor="vtkZLibDataCompressor">
	<PolyData>
		<Piece NumberOfPoints="456" NumberOfVerts="0" NumberOfLines="0" NumberOfStrips="0" NumberOfPolys="908">
		<PointData Normals="Normals">
		<DataArray type="Float32" Name="Normals" NumberOfComponents="3" format="ascii">
			0.248301 0.769227 0.588758
			0.425755 0.339365 0.838787
			0.048075 0.594978 0.802303
			0.185690 0.849914 0.493119
			0.508936 0.731801 0.453267
			0.498423 0.816506 0.291365
			-0.006927 0.291650 0.956500
			0.088309 0.020110 0.995890
			0.310581 -0.128079 0.941879
			0.623420 0.009660 0.781828
			0.777958 0.216774 0.589738
			0.726771 0.478885 0.492416
			-0.123930 0.792925 0.596583
			-0.312420 0.522950 0.793043
			0.068843 0.948950 0.307822
			0.384746 0.907854 0.166648
			0.804530 0.553330 0.215771
			0.663076 0.748387 0.015740
			-0.296683 0.089363 0.950786
			-0.046347 -0.235791 0.970698
			0.319970 -0.321988 0.891035
			0.682013 -0.213477 0.699489
			0.848608 -0.077761 0.523276
			0.925644 0.196705 0.323249
			-0.220115 0.850344 0.477980
			-0.444360 0.665947 0.599215
			-0.556058 0.289224 0.779198
			-0.131726 0.982363 0.132705
			0.141337 0.989866 -0.013718
			0.385607 0.910730 -0.147913
			0.895513 0.443172 -0.040682
			0.629642 0.723010 -0.284268
			-0.391349 -0.164826 0.905360
			-0.058003 -0.429541 0.901183
			0.318978 -0.518612 0.793282
			0.695242 -0.450298 0.560242
			0.920199 -0.218810 0.324586
			0.990989 0.079951 0.107466
			-0.389623 0.870040 0.302034
			-0.611412 0.626689 0.483153
			-0.740005 0.271757 0.615257
			-0.649153 -0.122609 0.750711
			-0.512713 0.857633 0.039888
			-0.252669 0.960547 -0.116225
			-0.002194 0.964886 -0.262659
			0.260556 0.862790 -0.433248
			0.974890 0.078440 -0.208413
			0.821481 0.433464 -0.370511
			0.521406 0.619514 -0.586803
			-0.376952 -0.470998 0.797538
			-0.008247 -0.643830 0.765124
			0.412844 -0.688124 0.596694
			0.752712 -0.566802 0.334901
			0.957125 -0.275454 0.089650
			-0.745778 0.623924 0.233525
			-0.885714 0.249269 0.391632
			-0.828057 -0.191422 0.526953
			-0.509362 -0.494927 0.703987
			-0.589278 0.796145 -0.137493
			-0.824182 0.557281 0.100804
			-0.333640 0.883379 -0.329127
			-0.076737 0.847320 -0.525509
			0.169826 0.682565 -0.710819
			0.902937 -0.109928 -0.415476
			0.751953 0.261126 -0.605294
			0.377123 0.408957 -0.830982
			-0.122311 -0.744877 0.655895
			0.358189 -0.775323 0.520168
			0.672356 -0.715697 0.188985
			0.871874 -0.471317 -0.133027
			-0.914149 0.219278 0.340953
			-0.862583 -0.214087 0.458385
			-0.600136 -0.614363 0.512245
			-0.154028 -0.830276 0.535647
			-0.529839 0.725779 -0.438766
			-0.788453 0.572877 -0.223950
			-0.952585 0.295188 -0.073808
			-0.319180 0.717589 -0.619024
			-0.083032 0.584304 -0.807276
			0.089510 0.343994 -0.934696
			0.735649 -0.275352 -0.618872
			0.607476 0.072997 -0.790977
			0.262895 0.007563 -0.964795
			0.260102 -0.869563 0.419771
			0.698922 -0.707669 0.103502
			0.774551 -0.571642 -0.270734
			-0.982198 0.019490 0.186832
			-0.840114 -0.497809 0.215393
			-0.500608 -0.845054 0.187818
			-0.240934 -0.951240 0.192596
			-0.806564 0.361126 -0.468020
			-0.641370 0.304211 -0.704343
			-0.938897 0.137306 -0.315625
			-0.972990 -0.220917 -0.066973
			-0.522098 0.244516 -0.817084
			-0.222013 0.214342 -0.951193
			0.075814 -0.013800 -0.997026
			0.530386 -0.613398 -0.585179
			0.453060 -0.312349 -0.834970
			0.273287 -0.348244 -0.896683
			-0.105172 -0.982265 0.155224
			0.139439 -0.990226 0.003034
			0.406692 -0.888146 -0.214007
			-0.683338 -0.686539 0.248422
			-0.295915 -0.909328 0.292502
			-0.151350 -0.975375 0.160430
			-0.879373 0.207058 -0.428755
			-0.696633 0.365731 -0.617206
			-0.996749 -0.063698 0.049333
			-0.775928 -0.396135 0.490931
			-0.406483 0.466458 -0.785614
			0.148957 0.208394 -0.966636
			0.286167 -0.740534 -0.608045
			0.566733 -0.193260 -0.800915
			0.058360 -0.998263 0.008005
			0.192529 -0.945738 -0.261750
			-0.189697 -0.654160 0.732181
			0.316981 -0.842128 0.436284
			-0.761138 0.648301 0.019360
			-0.930501 0.240605 0.276183
			-0.170709 0.927394 -0.332864
			-0.806755 -0.051127 0.588671
			-0.422034 -0.192038 0.886007
			0.395865 0.717155 -0.573567
			0.830985 0.187824 -0.523628
			0.645811 -0.517302 -0.561540
			0.870868 -0.198466 -0.449666
			0.656070 -0.747816 -0.101705
			0.302779 -0.452709 0.838678
			0.796338 -0.485831 0.360297
			-0.106315 0.987879 0.113107
			-0.631365 0.677232 0.377803
			-0.857068 0.300473 0.418509
			-0.828571 0.184618 0.528570
			0.484172 0.851656 -0.200647
			-0.599892 0.073970 0.796655
			-0.074098 -0.089582 0.993220
			0.789568 0.482874 -0.378701
			0.846860 -0.127231 -0.516373
			0.914464 -0.311033 -0.258871
			0.894502 -0.175114 -0.411340
			0.830109 -0.289728 -0.476420
			0.685553 -0.378115 0.622131
			0.958621 -0.270705 0.088120
			0.061042 0.949417 0.308027
			0.527503 0.837863 -0.140447
			-0.074437 0.516790 0.852870
			-0.464590 0.306157 0.830918
			-0.400110 0.551585 0.731892
			-0.543059 0.318605 0.776903
			0.660369 0.524233 -0.537672
			-0.518870 0.246803 0.818451
			0.072947 0.193758 0.978333
			0.707437 -0.038303 -0.705738
			0.799202 -0.202826 -0.565808
			0.757300 -0.255535 -0.600997
			0.949683 -0.309424 0.048575
			0.904357 -0.122006 -0.408967
			0.774910 -0.286114 0.563607
			0.301706 0.904032 0.302819
			0.331297 0.874579 -0.354055
			0.507069 0.341668 -0.791292
			0.706778 0.333799 0.623733
			0.530493 -0.130065 0.837651
			0.462456 0.324838 0.824994
			0.053732 0.414477 0.908472
			-0.373272 0.320957 0.870434
			0.618321 -0.058699 -0.783730
			-0.294965 0.554098 0.778441
			-0.239984 0.647491 0.723300
			0.491943 0.293772 0.819567
			0.784331 -0.095578 -0.612934
			0.697126 -0.180815 -0.693773
			0.741521 -0.176477 -0.647305
			0.767307 -0.131078 -0.627741
			0.822336 -0.248747 0.511751
			0.832670 -0.157928 0.530772
			0.986221 0.083877 0.142596
			0.162392 0.954323 -0.250791
			0.093309 0.357215 -0.929350
			0.360150 0.020803 -0.932662
			0.285968 0.897918 0.334613
			0.429316 0.127130 0.894163
			0.162960 0.102726 0.981270
			-0.230738 0.089631 0.968879
			-0.444741 0.070310 0.892895
			-0.656341 0.382251 0.650462
			0.681954 -0.244765 -0.689224
			0.598172 -0.100969 -0.794982
			-0.405716 0.561258 0.721377
			0.094949 0.248965 0.963847
			0.834133 -0.208986 0.510438
			0.889184 0.130388 -0.438576
			0.728202 0.036310 -0.684400
			0.645788 -0.104096 -0.756387
			0.987776 -0.009014 -0.155618
			0.762489 -0.318571 0.563136
			0.622478 -0.143625 0.769347
			0.793035 -0.005442 0.609152
			-0.281799 0.673664 -0.683203
			-0.408201 0.906941 -0.104068
			-0.099993 0.241539 -0.965225
			0.269542 0.188479 -0.944364
			-0.666245 0.580767 0.467790
			-0.653737 0.020405 0.756446
			-0.762410 -0.032436 0.646280
			-0.776045 -0.214257 0.593167
			-0.860558 -0.225381 0.456776
			-0.920569 0.026942 0.389651
			0.372315 -0.351936 -0.858792
			0.472324 -0.162193 -0.866374
			-0.432404 -0.205564 0.877935
			0.538718 -0.491766 0.684068
			0.746618 -0.441075 0.498011
			0.898082 0.162720 -0.408621
			0.712214 0.152756 -0.685139
			0.464137 -0.021571 -0.885501
			0.976792 0.064090 0.204373
			0.487271 -0.266899 0.831464
			0.676557 -0.062286 0.733752
			-0.400141 0.430032 -0.809296
			-0.714301 0.571768 -0.403554
			-0.928762 0.370556 0.009405
			-0.096166 0.206845 -0.973636
			-0.965854 0.083701 0.245194
			-0.992270 -0.070555 0.102084
			-0.965032 -0.261404 0.019504
			-0.916584 -0.349557 0.194125
			-0.942002 -0.308065 0.133143
			-0.862051 -0.348906 0.367605
			-0.843720 -0.428433 0.323392
			-0.051800 -0.403546 -0.913492
			0.013407 -0.336986 -0.941414
			-0.147167 -0.772422 0.617823
			0.331800 -0.700985 0.631292
			0.825941 0.171309 -0.537098
			0.985259 0.137133 0.102268
			0.546998 0.067481 -0.834410
			-0.106462 -0.129440 -0.985856
			0.314730 0.003220 -0.949175
			0.653418 -0.035105 0.756183
			0.152824 -0.309779 0.938446
			-0.627050 0.189653 -0.755539
			-0.887272 0.151717 -0.435581
			-0.971655 0.059584 -0.228773
			-0.476638 -0.295981 -0.827775
			-0.953365 -0.201557 -0.224655
			-0.899939 -0.432174 0.057749
			-0.899870 -0.302216 -0.314480
			-0.860906 -0.325601 -0.390928
			-0.855585 -0.412672 0.312532
			-0.509577 -0.737422 0.443328
			-0.503840 -0.383573 -0.773963
			0.729104 0.164425 -0.664358
			0.973310 0.204271 0.104599
			0.622159 0.077452 0.779051
			-0.292652 -0.097243 -0.951262
			-0.619880 -0.210050 -0.756061
			0.290045 0.056416 -0.955349
			-0.124027 -0.146282 0.981437
			-0.444650 -0.351361 0.823912
			-0.780293 -0.209236 -0.589375
			-0.827603 -0.280837 -0.486008
			-0.750056 -0.240442 0.616121
			-0.937908 -0.248324 -0.242205
			0.568622 0.145747 -0.809585
			0.976412 0.200684 -0.079652
			0.375582 0.065146 0.924497
			-0.392715 -0.082440 -0.915958
			-0.235843 -0.058781 -0.970012
			-0.652704 -0.178038 0.736396
			-0.951177 -0.254496 -0.174630
			0.459670 0.078621 -0.884603
			0.964301 0.184783 -0.189680
			0.436295 0.112054 0.892799
			-0.648531 -0.108531 0.753412
			-0.400083 -0.147147 -0.904589
			-0.966251 -0.246037 -0.076331
			0.469569 0.005436 -0.882879
			0.985086 0.126313 -0.116835
			0.440040 0.096770 0.892749
			-0.689122 -0.066945 0.721547
			-0.983285 -0.175559 -0.048276
			-0.494613 -0.153497 -0.855451
			0.517263 -0.018608 -0.855624
			0.991527 0.116524 0.057415
			0.296789 0.124359 0.946811
			-0.742313 -0.007287 0.670015
			-0.985855 -0.120971 -0.116001
			-0.500005 -0.138864 -0.854817
			0.566233 -0.044537 -0.823041
			0.992731 0.088457 0.081604
			0.296830 0.124621 0.946764
			-0.747030 0.023892 0.664360
			-0.976540 -0.082814 -0.198775
			-0.426819 -0.140804 -0.893308
			0.450841 -0.094735 -0.887562
			0.999499 0.031544 0.002643
			0.337626 0.145611 0.929949
			-0.693096 0.081749 0.716195
			-0.985037 -0.012995 -0.171854
			-0.433174 -0.098234 -0.895941
			-0.079647 -0.086393 -0.993073
			0.745439 -0.069389 -0.662952
			0.991389 0.010714 0.130509
			0.426954 0.145126 0.892552
			-0.528788 0.123320 0.839747
			-0.965099 0.052881 0.256490
			-0.767831 -0.028449 -0.640019
			-0.160065 -0.051620 -0.985755
			0.673226 -0.083522 -0.734704
			0.998480 -0.017733 0.052187
			0.512340 0.159442 0.843852
			-0.572653 0.194331 0.796432
			-0.931012 0.093294 0.352863
			-0.869186 0.052035 -0.491739
			-0.161263 0.090776 -0.982728
			0.626361 0.000842 -0.779532
			0.992721 -0.037185 0.114551
			0.698700 0.160356 0.697212
			-0.476343 0.386152 0.789927
			-0.948025 0.173686 0.266609
			-0.954120 0.199697 -0.223106
			-0.627187 0.540418 -0.560879
			0.156450 0.242130 -0.957547
			0.858524 0.239849 -0.453221
			0.974700 0.134555 0.178483
			0.828188 0.156127 0.538264
			0.015838 0.539747 0.841678
			-0.892980 0.372638 0.252444
			-0.917656 0.360711 0.166720
			-0.445327 0.794153 -0.413527
			0.099969 0.408202 -0.907401
			-0.618015 0.742072 0.259588
			0.386220 0.198857 -0.900716
			0.803197 0.175349 -0.569322
			0.986259 0.098965 0.132284
			0.984474 0.136491 0.110364
			0.840860 0.297415 0.452215
			0.743879 0.419877 0.519949
			0.174306 0.693490 0.699064
			-0.844365 0.518892 0.133413
			-0.791294 0.603878 0.095837
			-0.753865 0.637085 0.160651
			-0.411231 0.688164 -0.597761
			-0.501879 0.810528 0.301929
			0.016690 0.345463 -0.938284
			0.293700 0.040160 -0.955054
			-0.620856 0.603285 0.500586
			0.394215 -0.051687 -0.917563
			0.899505 -0.137545 -0.414694
			0.922820 -0.322741 0.210341
			0.951714 -0.280670 -0.124356
			0.997916 0.060748 0.021736
			0.840427 0.185502 0.509187
			0.757031 0.224889 0.613456
			0.722947 0.011395 0.690811
			0.392135 0.147170 0.908059
			-0.228524 0.696980 0.679702
			-0.598030 0.779822 0.185034
			-0.586242 0.802091 -0.113893
			-0.869985 0.488057 0.070190
			-0.693681 0.527057 -0.490935
			-0.385293 0.132901 -0.913173
			-0.775520 0.631265 0.008572
			-0.537071 0.202639 0.818836
			-0.695870 0.440556 0.567164
			-0.082484 -0.210649 -0.974075
			0.207418 -0.275940 -0.938528
			-0.951896 -0.233465 0.198462
			0.249163 -0.217120 -0.943810
			0.388509 -0.184157 -0.902854
			0.817595 -0.532809 -0.218296
			0.736924 -0.624641 0.258392
			0.725768 -0.660640 -0.191874
			0.737256 -0.383402 -0.556288
			0.964943 -0.208637 0.159237
			0.796581 -0.028527 0.603858
			0.777413 0.025582 0.628469
			0.625407 -0.206803 0.752395
			0.280755 -0.124214 0.951708
			-0.244487 0.194416 0.949963
			-0.443673 0.746288 0.496194
			-0.248882 0.963816 0.095477
			-0.313259 0.871868 -0.376452
			-0.655358 0.394715 -0.643977
			-0.691524 0.047702 -0.720777
			-0.974885 0.218788 -0.041612
			-0.328810 -0.135881 -0.934570
			-0.907556 0.044326 0.417585
			-0.498216 -0.248063 0.830811
			-0.525030 -0.149172 0.837908
			-0.104037 -0.155848 -0.982287
			0.134594 -0.219007 -0.966395
			-0.581700 -0.069603 -0.810421
			-0.915127 -0.396528 -0.072860
			0.222087 -0.242773 -0.944319
			0.419014 -0.673850 -0.608567
			0.485104 -0.863571 0.137543
			0.362041 -0.908773 0.207501
			0.304696 -0.836201 -0.455993
			0.660700 -0.700060 -0.270906
			0.756785 -0.104584 0.645243
			0.693576 -0.141916 0.706267
			0.536752 -0.274936 0.797689
			0.258333 -0.258192 0.930914
			-0.159619 -0.023060 0.986910
			-0.679269 0.163314 0.715487
			-0.633731 0.765931 -0.108324
			-0.523712 0.346810 -0.778106
			-0.856917 -0.313704 -0.409003
			-0.859672 -0.438283 0.262435
			-0.570047 -0.400668 -0.717294
			-0.633294 -0.595824 0.493895
			-0.353404 -0.534972 0.767405
			-0.144534 -0.650226 -0.745866
			0.160744 -0.674351 -0.720702
			-0.501202 -0.230179 -0.834155
			-0.645719 -0.231223 -0.727724
			-0.455206 -0.488929 -0.744134
			-0.578329 -0.771896 -0.264031
			-0.386332 -0.791064 0.474305
			0.158123 -0.971887 -0.174450
			0.166437 -0.969012 0.182525
			-0.051256 -0.971722 -0.230498
			-0.070923 -0.922977 0.378263
			0.060970 -0.838021 -0.542221
			0.267796 -0.891965 -0.364258
			0.622512 -0.662234 0.417044
			0.570427 -0.130603 0.810897
			0.440073 -0.285951 0.851215
			0.172190 -0.271719 0.946847
			-0.097017 -0.241779 0.965469
			-0.763546 -0.382196 0.520504
			-0.985083 0.080624 -0.152023
			-0.607555 -0.763817 0.217856
			-0.417721 -0.782099 0.462419
			-0.431618 -0.902028 0.007226
			-0.163649 -0.826862 0.538069
			-0.098484 -0.994209 -0.043017
			-0.563013 -0.557240 -0.610328
			-0.866303 -0.465356 -0.181560
			-0.381168 -0.684735 -0.621167
			-0.295214 -0.694379 -0.656266
			-0.055109 -0.975482 0.213067
			0.142148 -0.986704 -0.078795
			-0.120802 -0.862297 -0.491783
			0.410680 -0.462902 0.785534
			0.041627 -0.452698 0.890692
			-0.436417 -0.569602 0.696487
			-0.714636 -0.698365 0.039765
			-0.252500 -0.919024 0.302720
			-0.525985 -0.803691 -0.278245
			-0.223702 -0.967776 -0.115616
			-0.027627 -0.900940 0.433062
			-0.387072 -0.899922 0.200788
		</DataArray>
	</PointData>
	<Points>
		<DataArray type="Float32" NumberOfComponents="3" format="ascii">
			0.003791 0.016249 0.015542
			0.009723 0.007692 0.018010
			-0.001091 0.013279 0.019264
			0.003039 0.018877 0.012154
			0.010585 0.016125 0.012354
			0.014022 0.015966 0.007314
			-0.003705 0.006291 0.022222
			-0.000175 -0.002121 0.023575
			0.008115 -0.006548 0.021028
			0.015881 -0.000887 0.017409
			0.018559 0.004164 0.011854
			0.016186 0.012429 0.010003
			-0.002254 0.016495 0.015742
			-0.007186 0.010363 0.019678
			0.000489 0.021308 0.006871
			0.009196 0.019701 0.003802
			0.019703 0.010411 0.004593
			0.015708 0.016048 0.000344
			-0.007704 0.001715 0.022366
			-0.002453 -0.005448 0.022688
			0.007539 -0.009522 0.020217
			0.015732 -0.006751 0.016600
			0.020036 -0.003108 0.011564
			0.021711 0.001930 0.007765
			-0.005581 0.019192 0.010901
			-0.010566 0.013950 0.015004
			-0.012613 0.005730 0.019006
			-0.002465 0.022348 0.001916
			0.002707 0.022200 -0.001487
			0.008581 0.020082 -0.004450
			0.020423 0.009689 -0.002318
			0.015104 0.015206 -0.007556
			-0.009472 -0.004399 0.021375
			-0.002118 -0.010546 0.021171
			0.007855 -0.012411 0.018581
			0.015920 -0.010553 0.014140
			0.021330 -0.005899 0.007465
			0.023292 0.001342 -0.000159
			-0.008384 0.020270 0.005859
			-0.013861 0.015534 0.010068
			-0.017115 0.006679 0.014644
			-0.015233 -0.002225 0.017992
			-0.012171 0.019605 0.000480
			-0.006272 0.021704 -0.002651
			-0.000879 0.021757 -0.006540
			0.004419 0.019940 -0.010203
			0.023489 -0.000449 -0.003621
			0.019689 0.009162 -0.008214
			0.011484 0.013512 -0.014568
			-0.009160 -0.010096 0.019341
			-0.000980 -0.014178 0.018702
			0.008076 -0.016388 0.015170
			0.017343 -0.012908 0.009134
			0.021817 -0.008721 0.002776
			-0.017157 0.014896 0.004505
			-0.020214 0.006621 0.009603
			-0.018912 -0.003732 0.013382
			-0.012464 -0.011757 0.016079
			-0.015693 0.016801 -0.003073
			-0.020309 0.011200 0.002732
			-0.009494 0.019490 -0.007627
			-0.002981 0.018861 -0.012695
			0.003114 0.015084 -0.017254
			0.021169 -0.004367 -0.009344
			0.016788 0.005696 -0.014827
			0.007906 0.009620 -0.019855
			-0.003300 -0.016009 0.016807
			0.007155 -0.018270 0.013350
			0.016335 -0.015782 0.005589
			0.021439 -0.010242 -0.002486
			-0.022261 0.001321 0.007050
			-0.019363 -0.007808 0.010732
			-0.010829 -0.014437 0.015861
			-0.001030 -0.017899 0.015097
			-0.011491 0.016828 -0.011272
			-0.017032 0.014765 -0.006670
			-0.021566 0.008939 -0.001629
			-0.007076 0.015565 -0.016247
			-0.003056 0.013495 -0.019149
			0.000643 0.008292 -0.021855
			0.016103 -0.004878 -0.016445
			0.012842 0.001825 -0.019753
			0.006142 -0.000378 -0.022870
			0.009473 -0.019318 0.009586
			0.015196 -0.017412 -0.001186
			0.017801 -0.012535 -0.009223
			-0.023819 0.000763 0.002955
			-0.021632 -0.006854 0.006879
			-0.013726 -0.014041 0.010202
			-0.004233 -0.017599 0.011030
			-0.018870 0.010782 -0.009096
			-0.013272 0.012226 -0.014652
			-0.021852 0.004045 -0.004348
			-0.022626 -0.003625 -0.001892
			-0.008604 0.009989 -0.019718
			-0.002899 0.005694 -0.022581
			-0.000138 -0.001754 -0.023645
			0.013986 -0.015554 -0.011516
			0.010519 -0.007359 -0.019827
			0.004361 -0.009257 -0.021029
			0.003518 -0.019788 0.007966
			0.008452 -0.020501 0.003859
			0.012834 -0.018739 -0.004211
			-0.017598 -0.012253 0.004069
			-0.009406 -0.016572 0.005541
			-0.002106 -0.019128 0.003927
			-0.018367 -0.001319 -0.010482
			-0.012734 0.003803 -0.014419
			-0.020914 -0.009408 -0.006200
			-0.016831 -0.016722 -0.001583
			-0.008603 0.001468 -0.019163
			-0.003715 -0.002059 -0.023676
			0.007030 -0.015612 -0.015828
			0.000115 -0.009303 -0.022421
			0.003436 -0.019542 -0.000202
			0.007244 -0.018849 -0.007268
			-0.010383 -0.020660 -0.000585
			-0.002253 -0.021786 -0.004993
			-0.020668 -0.007323 -0.019111
			-0.023271 -0.015170 -0.013779
			-0.014705 -0.003081 -0.023893
			-0.020092 -0.021184 -0.008486
			-0.016874 -0.027233 -0.006238
			-0.009053 -0.006393 -0.028754
			-0.005894 -0.014049 -0.029458
			0.002482 -0.015123 -0.018089
			-0.005148 -0.021305 -0.027045
			0.002731 -0.019496 -0.012346
			-0.011519 -0.030086 -0.006483
			-0.005954 -0.030820 -0.011724
			-0.019021 -0.003809 -0.029120
			-0.023011 -0.008844 -0.023419
			-0.024994 -0.017052 -0.017974
			-0.024382 -0.025046 -0.014024
			-0.014631 -0.005939 -0.034343
			-0.020316 -0.033184 -0.008198
			-0.016943 -0.035639 -0.006601
			-0.010255 -0.010334 -0.037019
			-0.007872 -0.016472 -0.037915
			-0.004367 -0.028023 -0.021900
			-0.008324 -0.032025 -0.029695
			-0.009115 -0.022463 -0.034618
			-0.008952 -0.038989 -0.013496
			-0.005644 -0.037946 -0.021395
			-0.022230 -0.002509 -0.034851
			-0.017845 -0.003920 -0.039014
			-0.028100 -0.007025 -0.029120
			-0.029555 -0.015071 -0.028393
			-0.029228 -0.023602 -0.022770
			-0.027518 -0.033027 -0.014621
			-0.014483 -0.007522 -0.042672
			-0.023880 -0.040066 -0.010193
			-0.020352 -0.044448 -0.006365
			-0.013572 -0.012586 -0.044002
			-0.013016 -0.028440 -0.036769
			-0.014224 -0.019408 -0.041569
			-0.006944 -0.045394 -0.022089
			-0.009822 -0.037534 -0.030674
			-0.013151 -0.046123 -0.012822
			-0.027246 -0.000586 -0.038047
			-0.023374 -0.000865 -0.044227
			-0.020147 -0.007116 -0.047266
			-0.034527 -0.001667 -0.023826
			-0.037173 -0.010885 -0.027332
			-0.037354 -0.020288 -0.025977
			-0.036462 -0.027359 -0.020075
			-0.033508 -0.035113 -0.017314
			-0.019146 -0.016586 -0.047216
			-0.028821 -0.043109 -0.012110
			-0.025899 -0.047499 -0.008217
			-0.022002 -0.050377 -0.002995
			-0.017095 -0.033175 -0.040946
			-0.019095 -0.025991 -0.044114
			-0.009754 -0.047537 -0.031608
			-0.013496 -0.040207 -0.036066
			-0.018818 -0.052402 -0.009802
			-0.010311 -0.053581 -0.018604
			-0.006897 -0.051286 -0.025702
			-0.029110 0.000384 -0.042237
			-0.024051 -0.008912 -0.049137
			-0.022202 -0.019029 -0.048702
			-0.035518 0.001529 -0.025613
			-0.039944 -0.002198 -0.018374
			-0.042697 -0.016396 -0.021202
			-0.041819 -0.027193 -0.019043
			-0.039493 -0.037520 -0.018392
			-0.034528 -0.045095 -0.012861
			-0.021076 -0.036531 -0.044479
			-0.022228 -0.028868 -0.048751
			-0.031376 -0.050149 -0.003642
			-0.026710 -0.053521 0.000226
			-0.021665 -0.055760 -0.002672
			-0.008596 -0.053838 -0.030923
			-0.013078 -0.049910 -0.036613
			-0.017557 -0.043344 -0.041255
			-0.006592 -0.056632 -0.025044
			-0.020645 -0.056972 -0.009663
			-0.015210 -0.058067 -0.015771
			-0.010237 -0.058574 -0.019314
			-0.033680 -0.001490 -0.044286
			-0.040360 0.001131 -0.030363
			-0.030538 -0.010699 -0.049591
			-0.028942 -0.019954 -0.051712
			-0.044705 -0.001061 -0.020630
			-0.046782 -0.017302 -0.021734
			-0.047603 -0.026708 -0.022004
			-0.046166 -0.036133 -0.022794
			-0.037585 -0.047147 -0.019961
			-0.034251 -0.053610 -0.006150
			-0.026497 -0.037972 -0.047702
			-0.027094 -0.030100 -0.052391
			-0.029100 -0.056835 -0.000873
			-0.023182 -0.059496 -0.003382
			-0.021251 -0.061094 -0.012136
			-0.008348 -0.059920 -0.033021
			-0.014826 -0.054441 -0.040197
			-0.022259 -0.048723 -0.044174
			-0.005628 -0.062742 -0.027462
			-0.015145 -0.063738 -0.016686
			-0.008286 -0.064376 -0.020996
			-0.037042 -0.005983 -0.045048
			-0.046744 -0.003633 -0.033793
			-0.048233 -0.007215 -0.026273
			-0.034762 -0.018084 -0.053166
			-0.049453 -0.015310 -0.027528
			-0.049575 -0.026177 -0.029880
			-0.047249 -0.034851 -0.030832
			-0.040956 -0.051667 -0.027582
			-0.033477 -0.058757 -0.018413
			-0.034524 -0.061844 -0.026084
			-0.033766 -0.060415 -0.007625
			-0.031472 -0.039424 -0.047729
			-0.031764 -0.029380 -0.054370
			-0.028280 -0.062049 -0.003257
			-0.022913 -0.066033 -0.014209
			-0.008753 -0.067201 -0.036844
			-0.004838 -0.069216 -0.027655
			-0.016341 -0.065462 -0.042356
			-0.028409 -0.047836 -0.046367
			-0.021735 -0.064307 -0.045317
			-0.009339 -0.070301 -0.020438
			-0.016999 -0.068743 -0.016868
			-0.040423 -0.018831 -0.049750
			-0.047238 -0.017200 -0.042541
			-0.049234 -0.019199 -0.036269
			-0.037805 -0.032225 -0.050514
			-0.048205 -0.028578 -0.038414
			-0.037110 -0.063076 -0.033202
			-0.040290 -0.054934 -0.035083
			-0.044194 -0.041693 -0.036837
			-0.030905 -0.073187 -0.029054
			-0.029638 -0.066002 -0.016767
			-0.036855 -0.042835 -0.044200
			-0.003644 -0.083414 -0.036356
			-0.001503 -0.083414 -0.029244
			-0.005806 -0.084573 -0.022604
			-0.028005 -0.065224 -0.045039
			-0.034055 -0.053013 -0.042865
			-0.014402 -0.083305 -0.043553
			-0.014577 -0.085186 -0.020710
			-0.017668 -0.076417 -0.019627
			-0.043841 -0.031288 -0.045601
			-0.034298 -0.064257 -0.039617
			-0.022746 -0.088350 -0.026207
			-0.028216 -0.086157 -0.040044
			-0.002204 -0.114743 -0.043511
			0.003878 -0.107347 -0.033067
			0.000564 -0.113007 -0.022304
			-0.023560 -0.085334 -0.045777
			-0.015803 -0.115449 -0.046226
			-0.014001 -0.114730 -0.025460
			-0.020527 -0.116932 -0.041307
			0.004508 -0.145764 -0.044938
			0.012349 -0.143353 -0.035391
			0.007657 -0.143528 -0.020801
			-0.004867 -0.146576 -0.024777
			-0.005366 -0.147796 -0.045230
			-0.010500 -0.149026 -0.038022
			0.012041 -0.178401 -0.043729
			0.018566 -0.175554 -0.034518
			0.013668 -0.175162 -0.019859
			0.000812 -0.175151 -0.023623
			-0.003042 -0.177528 -0.034897
			0.001262 -0.176914 -0.043561
			0.016379 -0.206374 -0.041275
			0.023087 -0.204443 -0.028327
			0.014369 -0.204587 -0.017543
			0.005023 -0.206800 -0.021589
			0.001964 -0.208076 -0.032864
			0.006439 -0.207960 -0.041004
			0.021640 -0.241751 -0.036952
			0.026924 -0.239962 -0.024957
			0.019062 -0.238952 -0.014016
			0.008606 -0.239368 -0.017420
			0.005626 -0.242416 -0.028887
			0.011664 -0.242579 -0.037523
			0.025525 -0.274641 -0.031360
			0.029721 -0.273026 -0.021054
			0.021532 -0.270831 -0.009754
			0.009931 -0.272479 -0.013615
			0.007715 -0.275061 -0.026604
			0.014667 -0.276413 -0.033074
			0.016011 -0.307083 -0.029393
			0.023762 -0.306786 -0.028541
			0.030174 -0.305174 -0.014891
			0.024564 -0.303786 -0.005055
			0.014836 -0.303605 -0.006453
			0.007816 -0.304867 -0.014299
			0.008619 -0.306907 -0.025177
			0.014934 -0.340184 -0.026248
			0.025933 -0.340585 -0.024651
			0.030291 -0.341299 -0.010859
			0.023289 -0.338525 0.001644
			0.013536 -0.337084 -0.000151
			0.007858 -0.337793 -0.009767
			0.006348 -0.339171 -0.021352
			0.012710 -0.367059 -0.025597
			0.027276 -0.369993 -0.020682
			0.027642 -0.368313 -0.004421
			0.023642 -0.365258 0.006266
			0.013012 -0.362424 0.008727
			0.005948 -0.367552 -0.007118
			0.003673 -0.366642 -0.021309
			-0.000638 -0.379953 -0.023599
			0.012121 -0.381437 -0.026785
			0.026796 -0.386524 -0.022494
			0.027287 -0.384931 -0.001300
			0.020448 -0.378024 0.012212
			0.010812 -0.375358 0.017088
			0.006334 -0.377939 0.008362
			0.004229 -0.380700 -0.004059
			-0.006308 -0.386908 -0.028927
			0.008603 -0.394172 -0.032347
			-0.003300 -0.386950 -0.014973
			0.019735 -0.397334 -0.029858
			0.032308 -0.397236 -0.022748
			0.030364 -0.395803 -0.010059
			0.028877 -0.395923 0.000322
			0.025247 -0.391159 0.011610
			0.019309 -0.388099 0.019340
			0.005828 -0.387986 0.032595
			0.009949 -0.382211 0.022443
			0.002671 -0.386063 0.012766
			0.001306 -0.387863 -0.000880
			-0.012771 -0.391566 -0.029297
			-0.012609 -0.390087 -0.014531
			-0.001063 -0.398518 -0.036676
			0.007127 -0.402182 -0.034941
			-0.009345 -0.392127 -0.009391
			0.018426 -0.404484 -0.030421
			0.032564 -0.405952 -0.022739
			0.030078 -0.405345 -0.010155
			0.027691 -0.406431 -0.001049
			0.030635 -0.405352 0.006455
			0.024131 -0.399990 0.016686
			0.017739 -0.394771 0.026324
			0.015908 -0.402297 0.029269
			0.010533 -0.397918 0.035949
			0.001911 -0.394027 0.036866
			-0.002192 -0.391301 0.025480
			-0.003508 -0.392524 0.016091
			-0.004278 -0.394464 0.001465
			-0.019951 -0.397000 -0.027684
			-0.013047 -0.402755 -0.035504
			-0.021021 -0.395546 -0.021986
			-0.013582 -0.400649 -0.006593
			-0.019475 -0.397443 -0.012074
			-0.005381 -0.406224 -0.037552
			0.004753 -0.408443 -0.034870
			-0.004571 -0.400066 0.001062
			0.014528 -0.411899 -0.030596
			0.021700 -0.413354 -0.028740
			0.028406 -0.414204 -0.023644
			0.027160 -0.413645 -0.011783
			0.023051 -0.412977 -0.001086
			0.027401 -0.413810 0.004998
			0.031097 -0.414385 0.009070
			0.027719 -0.410568 0.015130
			0.022743 -0.407738 0.020238
			0.013393 -0.409421 0.030008
			0.005497 -0.402633 0.037536
			-0.008503 -0.397554 0.035714
			-0.016866 -0.394122 0.027913
			-0.004966 -0.393543 0.027997
			-0.011747 -0.392955 0.018748
			-0.010012 -0.398362 0.012702
			-0.024228 -0.406220 -0.029867
			-0.025344 -0.404414 -0.023302
			-0.015552 -0.410292 -0.030934
			-0.023208 -0.405472 -0.014076
			-0.005396 -0.408388 -0.006754
			-0.018931 -0.408765 -0.009026
			-0.009409 -0.413578 -0.032820
			0.000356 -0.416642 -0.032573
			-0.003227 -0.408863 0.008836
			0.001702 -0.410554 0.001167
			0.013955 -0.417720 -0.029325
			0.020445 -0.421304 -0.026507
			0.020283 -0.421241 -0.015252
			0.016771 -0.417887 -0.005263
			0.018409 -0.418868 0.003209
			0.026747 -0.421107 0.010640
			0.025299 -0.417231 0.017785
			0.019589 -0.413299 0.021979
			0.010816 -0.414317 0.030430
			0.000752 -0.411863 0.035788
			-0.009246 -0.409211 0.036291
			-0.022307 -0.408518 0.033585
			-0.019290 -0.395822 0.020952
			-0.018820 -0.403336 0.013061
			-0.024141 -0.412954 -0.028303
			-0.024596 -0.410552 -0.019815
			-0.018650 -0.417224 -0.032232
			-0.017583 -0.415397 -0.012842
			-0.007975 -0.416280 -0.008117
			-0.010284 -0.422335 -0.032860
			0.003113 -0.423059 -0.030608
			-0.015417 -0.415554 0.013880
			-0.020378 -0.409831 0.014180
			-0.006802 -0.422000 0.013335
			0.004849 -0.416357 0.000403
			0.004705 -0.417706 -0.006362
			0.011099 -0.423568 -0.026483
			0.011832 -0.424598 -0.018457
			0.010712 -0.418415 -0.000585
			0.009942 -0.421177 -0.009942
			0.011760 -0.421603 0.004612
			0.016963 -0.425625 0.012197
			0.019844 -0.425175 0.021470
			0.015062 -0.418886 0.025095
			0.007446 -0.420808 0.029182
			0.001267 -0.417849 0.033886
			-0.009478 -0.415455 0.035593
			-0.019952 -0.414476 0.033567
			-0.024124 -0.403513 0.021100
			-0.016986 -0.419300 -0.019029
			-0.012019 -0.418955 -0.013347
			-0.014260 -0.421751 -0.025078
			-0.001246 -0.420783 -0.011532
			-0.003372 -0.424534 -0.023947
			-0.016660 -0.420793 0.017926
			-0.023042 -0.415806 0.022827
			-0.006108 -0.426428 0.015517
			0.003970 -0.421652 0.006907
			0.003684 -0.424559 -0.017863
			0.006642 -0.430363 0.020622
			0.002104 -0.429172 0.015129
			0.009546 -0.428067 0.027471
			-0.006658 -0.425121 0.033686
			-0.015932 -0.422695 0.031058
			-0.018056 -0.422181 0.023915
			-0.007071 -0.422840 -0.017633
			-0.011331 -0.426908 0.020594
			-0.004052 -0.429494 0.020268
			-0.001041 -0.428210 0.031012
			-0.010505 -0.427177 0.026844
		</DataArray>
	</Points>
			<Polys>
				<DataArray type="Int32" Name="connectivity" format="ascii">
					2 1 0 
					0 3 2 
					0 1 4 
					4 5 0 
					5 3 0 
					6 1 2 
					7 1 6 
					8 1 7 
					9 1 8 
					10 1 9 
					11 1 10 
					4 1 11 
					3 12 2 
					12 13 2 
					2 13 6 
					3 14 12 
					5 15 3 
					15 14 3 
					11 16 4 
					16 5 4 
					16 17 5 
					17 15 5 
					13 18 6 
					6 18 7 
					18 19 7 
					7 19 8 
					19 20 8 
					8 20 9 
					20 21 9 
					9 21 10 
					21 22 10 