<?xml version="1.0"?>
<VTKFile type="PolyData" version="0.1" byte_order="LittleEndian" compressor="vtkZLibDataCompressor">
	<PolyData>
		<Piece NumberOfPoints="456" NumberOfVerts="0" NumberOfLines="0" NumberOfStrips="0" NumberOfPolys="908">
		<PointData Normals="Normals">
		<DataArray type="Float32" Name="Normals" NumberOfComponents="3" format="ascii">
			0.092566 0.769227 0.632235
			0.206115 0.339365 0.917796
			-0.153499 0.594978 0.788948
			0.055172 0.849914 0.524026
			0.378907 0.731801 0.566477
			0.409397 0.816506 0.407079
			-0.241482 0.291650 0.925542
			-0.154033 0.020110 0.987861
			0.077232 -0.128079 0.988753
			0.416226 0.009660 0.909210
			0.610350 0.216774 0.761894
			0.581352 0.478885 0.657799
			-0.269789 0.792925 0.546337
			-0.499136 0.522950 0.690932
			-0.011549 0.948950 0.315215
			0.330083 0.907854 0.258546
			0.725991 0.553330 0.408365
			0.637917 0.748387 0.181602
			-0.518728 0.089363 0.850256
			-0.276875 -0.235791 0.931527
			0.100080 -0.321988 0.941439
			0.495817 -0.213477 0.841779
			0.698087 -0.077761 0.711778
			0.819348 0.196705 0.538494
			-0.333737 0.850344 0.406859
			-0.579921 0.665947 0.469261
			-0.730098 0.289224 0.619118
			-0.161154 0.982363 0.094824
			0.140178 0.989866 0.022680
			0.410491 0.910730 -0.045478
			0.877750 0.443172 0.182082
			0.680767 0.723010 -0.117529
			-0.596759 -0.164826 0.785309
			-0.269054 -0.429541 0.862035
			0.123654 -0.518612 0.846021
			0.543381 -0.450298 0.708498
			0.816167 -0.218810 0.534785
			0.935288 0.079951 0.344741
			-0.453413 0.870040 0.193513
			-0.712984 0.626689 0.314507
			-0.868472 0.271757 0.414613
			-0.810750 -0.122609 0.572409
			-0.506135 0.857633 -0.091066
			-0.214851 0.960547 -0.176605
			0.064617 0.964886 -0.254596
			0.361717 0.862790 -0.353205
			0.996360 0.078440 0.033367
			0.887552 0.433464 -0.156080
			0.651316 0.619514 -0.438166
			-0.554709 -0.470998 0.685899
			-0.187037 -0.643830 0.741957
			0.262638 -0.688124 0.676392
			0.653093 -0.566802 0.502199
			0.908598 -0.275454 0.313967
			-0.780489 0.623924 0.039459
			-0.954775 0.249269 0.162078
			-0.930269 -0.191422 0.312980
			-0.660727 -0.494927 0.564346
			-0.535809 0.796145 -0.281178
			-0.823413 0.557281 -0.106903
			-0.239591 0.883379 -0.402786
			0.058424 0.847320 -0.527859
			0.342378 0.682565 -0.645664
			0.976160 -0.109928 -0.187155
			0.877378 0.261126 -0.402518
			0.570915 0.408957 -0.711905
			-0.271734 -0.744877 0.609359
			0.227933 -0.775323 0.589000
			0.609791 -0.715697 0.340488
			0.878627 -0.471317 0.076657
			-0.969562 0.219278 0.108934
			-0.946781 -0.214087 0.240361
			-0.703276 -0.614363 0.357715
			-0.274038 -0.830276 0.485330
			-0.402553 0.725779 -0.557849
			-0.707351 0.572877 -0.414085
			-0.904863 0.295188 -0.306739
			-0.153848 0.717589 -0.679263
			0.120987 0.584304 -0.802466
			0.317208 0.343994 -0.883769
			0.862322 -0.275352 -0.424949
			0.781439 0.072997 -0.619697
			0.488300 0.007563 -0.872643
			0.156058 -0.869563 0.468515
			0.655798 -0.707669 0.262934
			0.816474 -0.571642 -0.081221
			-0.998197 0.019490 -0.056773
			-0.867238 -0.497809 0.009184
			-0.530662 -0.845054 0.065433
			-0.279049 -0.951240 0.131429
			-0.665327 0.361126 -0.653397
			-0.445994 0.304211 -0.841751
			-0.833404 0.137306 -0.535337
			-0.928513 -0.220917 -0.298430
			-0.303614 0.244516 -0.920886
			0.017905 0.214342 -0.976595
			0.313804 -0.013800 -0.949387
			0.652227 -0.613398 -0.445358
			0.638619 -0.312349 -0.703281
			0.477794 -0.348244 -0.806498
			-0.138161 -0.982265 0.126756
			0.134988 -0.990226 0.035082
			0.445177 -0.888146 -0.114084
			-0.722585 -0.686539 0.080840
			-0.355841 -0.909328 0.215639
			-0.184340 -0.975375 0.121092
			-0.750005 0.207058 -0.628188
			-0.524939 0.365731 -0.768557
			-0.980111 -0.063698 -0.187949
			-0.868820 -0.396135 0.297033
			-0.203622 0.466458 -0.860788
			0.377310 0.208394 -0.902336
			0.420056 -0.740534 -0.524560
			0.740210 -0.193260 -0.644003
			0.054933 -0.998263 0.021267
			0.247862 -0.945738 -0.210107
			-0.353243 -0.654160 0.668800
			0.208290 -0.842128 0.497430
			-0.743905 0.648301 -0.162208
			-0.969263 0.240605 0.051359
			-0.085759 0.927394 -0.364123
			-0.920536 -0.051127 0.387298
			-0.611857 -0.192038 0.767301
			0.521160 0.717155 -0.462688
			0.930458 0.187824 -0.314596
			0.759055 -0.517302 -0.395265
			0.950937 -0.198466 -0.237338
			0.661820 -0.747816 0.052589
			0.106280 -0.452709 0.885302
			0.695057 -0.485831 0.529966
			-0.130335 0.987879 0.084314
			-0.702909 0.677232 0.217431
			-0.930855 0.300473 0.207906
			-0.927217 0.184618 0.325858
			0.518062 0.851656 -0.079331
			-0.762633 0.073970 0.642588
			-0.292658 -0.089582 0.952012
			0.856663 0.482874 -0.181552
			0.943768 -0.127231 -0.305147
			0.949319 -0.311033 -0.045313
			0.963901 -0.175114 -0.200572
			0.917241 -0.289728 -0.273363
			0.531868 -0.378115 0.757724
			0.915561 -0.270705 0.297433
			-0.014835 0.949417 0.313667
			0.545790 0.837863 -0.009896
			-0.275269 0.516790 0.810651
			-0.645747 0.306157 0.699485
			-0.556878 0.551585 0.621000
			-0.702882 0.318605 0.635962
			0.769249 0.524233 -0.365286
			-0.685810 0.246803 0.684656
			-0.141041 0.193758 0.970858
			0.853403 -0.038303 -0.519843
			0.906382 -0.202826 -0.370585
			0.875664 -0.255535 -0.409773
			0.916664 -0.309424 0.252953
			0.972345 -0.122006 -0.199146
			0.634873 -0.286114 0.717687
			0.219609 0.904032 0.366739
			0.406978 0.874579 -0.263593
			0.680782 0.341668 -0.647918
			0.535636 0.333799 0.775676
			0.317995 -0.130065 0.939128
			0.259802 0.324838 0.909386
			-0.153497 0.414477 0.897021
			-0.557357 0.320957 0.765728
			0.783672 -0.058699 -0.618395
			-0.457362 0.554098 0.695554
			-0.390037 0.647491 0.654696
			0.305521 0.293772 0.905734
			0.901394 -0.095578 -0.422318
			0.836594 -0.180815 -0.517123
			0.863452 -0.176477 -0.472554
			0.886311 -0.131078 -0.444153
			0.694830 -0.248747 0.674786
			0.701360 -0.157928 0.695092
			0.933181 0.083877 0.349482
			0.218285 0.954323 -0.204007
			0.310841 0.357215 -0.880781
			0.566066 0.020803 -0.824097
			0.196175 0.897918 0.394029
			0.201478 0.127130 0.971208
			-0.069884 0.102726 0.992251
			-0.444341 0.089631 0.891363
			-0.630958 0.070310 0.772624
			-0.781643 0.382251 0.492867
			0.817629 -0.244765 -0.521126
			0.762178 -0.100969 -0.639444
			-0.550526 0.561258 0.617990
			-0.111384 0.248965 0.962086
			0.707946 -0.208986 0.674639
			0.961867 0.130388 -0.240437
			0.857727 0.036310 -0.512822
			0.794887 -0.104096 -0.597761
			0.998425 -0.009014 0.055368
			0.627309 -0.318571 0.710630
			0.447693 -0.143625 0.882578
			0.648220 -0.005442 0.761434
			-0.108775 0.673664 -0.730989
			-0.370769 0.906941 -0.199971
			0.130550 0.241539 -0.961569
			0.480163 0.188479 -0.856691
			-0.759444 0.580767 0.293181
			-0.811528 0.020405 0.583957
			-0.889183 -0.032436 0.456400
			-0.888211 -0.214257 0.406417
			-0.938755 -0.225381 0.260660
			-0.982209 0.026942 0.185848
			0.552591 -0.351936 -0.755503
			0.655168 -0.162193 -0.737867
			-0.607102 -0.205564 0.767574
			0.384279 -0.491766 0.781342
			0.626989 -0.441075 0.642135
			0.963482 0.162720 -0.212661
			0.840912 0.152756 -0.519164
			0.643307 -0.021571 -0.765305
			0.913482 0.064090 0.401799
			0.305474 -0.266899 0.914030
			0.511148 -0.062286 0.857233
			-0.195513 0.430032 -0.881390
			-0.596637 0.571768 -0.563122
			-0.904339 0.370556 -0.211798
			0.132123 0.206845 -0.969412
			-0.996405 0.083701 0.013055
			-0.989509 -0.070555 -0.126064
			-0.945210 -0.261404 -0.195564
			-0.936900 -0.349557 -0.005449
			-0.949034 -0.308065 -0.066561
			-0.919500 -0.348906 0.181068
			-0.892524 -0.428433 0.140875
			0.150235 -0.403546 -0.902541
			0.225288 -0.336986 -0.914159
			-0.271882 -0.772422 0.573972
			0.195498 -0.700985 0.685858
			0.918182 0.171309 -0.357205
			0.943993 0.137133 0.300121
			0.706503 0.067481 -0.704485
			0.108029 -0.129440 -0.985685
			0.503287 0.003220 -0.864113
			0.486878 -0.035105 0.872765
			-0.041097 -0.309779 0.949920
			-0.435234 0.189653 -0.880115
			-0.761829 0.151717 -0.629761
			-0.892458 0.059584 -0.447180
			-0.279261 -0.295981 -0.913460
			-0.877979 -0.201557 -0.434199
			-0.892475 -0.432174 -0.129281
			-0.813235 -0.302216 -0.497305
			-0.754684 -0.325601 -0.569593
			-0.900906 -0.412672 0.134429
			-0.589566 -0.737422 0.329576
			-0.323122 -0.383573 -0.865139
			0.844627 0.164425 -0.509478
			0.934245 0.204271 0.292332
			0.458944 0.077452 0.885083
			-0.091195 -0.097243 -0.991074
			-0.445395 -0.210050 -0.870346
			0.470774 0.056416 -0.880448
			-0.312012 -0.146282 0.938749
			-0.599644 -0.351361 0.719008
			-0.628168 -0.209236 -0.749416
			-0.709883 -0.280837 -0.645908
			-0.854466 -0.240442 0.460518
			-0.873363 -0.248324 -0.419014
			0.703065 0.145747 -0.696030
			0.974664 0.200684 0.098766
			0.204863 0.065146 0.976620
			-0.207701 -0.082440 -0.974712
			-0.060656 -0.058781 -0.996426
			-0.772854 -0.178038 0.609097
			-0.905618 -0.254496 -0.339248
			0.594900 0.078621 -0.799945
			0.982257 0.184783 -0.032053
			0.287055 0.112054 0.951337
			-0.760114 -0.108531 0.640662
			-0.251776 -0.147147 -0.956534
			-0.942130 -0.246037 -0.227722
			0.589284 0.005436 -0.807908
			0.991681 0.126313 0.024761
			0.308091 0.096770 0.946422
			-0.785071 -0.066945 0.615778
			-0.966579 -0.175559 -0.186828
			-0.368357 -0.153497 -0.916925
			0.620080 -0.018608 -0.784319
			0.976389 0.116524 0.181895
			0.175202 0.124359 0.976647
			-0.820044 -0.007287 0.572255
			-0.963880 -0.120971 -0.237278
			-0.390157 -0.138864 -0.910217
			0.649228 -0.044537 -0.759288
			0.978555 0.088457 0.186021
			0.194584 0.124621 0.972937
			-0.813234 0.023892 0.581446
			-0.950501 -0.082814 -0.299480
			-0.331470 -0.140804 -0.932900
			0.525261 -0.094735 -0.845651
			0.995511 0.031544 0.089235
			0.254569 0.145611 0.956029
			-0.752751 0.081749 0.653210
			-0.966743 -0.012995 -0.255422
			-0.355733 -0.098234 -0.929411
			-0.012886 -0.086393 -0.996178
			0.788315 -0.069389 -0.611346
			0.980191 0.010714 0.197765
			0.364401 0.145126 0.919864
			-0.585510 0.123320 0.801231
			-0.980368 0.052881 0.189952
			-0.723123 -0.028449 -0.690133
			-0.112592 -0.051620 -0.992299
			0.707534 -0.083522 -0.701726
			0.994891 -0.017733 0.099386
			0.470438 0.159442 0.867910
			-0.611574 0.194331 0.766950
			-0.947292 0.093294 0.306487
			-0.844284 0.052035 -0.533364
			-0.129267 0.090776 -0.987446
			0.650058 0.000842 -0.759884
			0.988584 -0.037185 0.146011
			0.674943 0.160356 0.720235
			-0.503812 0.386152 0.772697
			-0.956116 0.173686 0.235955
			-0.946311 0.199697 -0.254199
			-0.612950 0.540418 -0.576403
			0.179555 0.242130 -0.953484
			0.867957 0.239849 -0.434882
			0.970505 0.134555 0.200039
			0.813832 0.156127 0.559735
			-0.007469 0.539747 0.841794
			-0.899286 0.372638 0.228965
			-0.921480 0.360711 0.144093
			-0.436536 0.794153 -0.422796
			0.115224 0.408202 -0.905591
			-0.623329 0.742072 0.246556
			0.399690 0.198857 -0.894821
			0.811680 0.175349 -0.557162
			0.984033 0.098965 0.147936
			0.982606 0.136491 0.125922
			0.832319 0.297415 0.467749
			0.733154 0.419877 0.534967
			0.160010 0.693490 0.702474
			-0.847293 0.518892 0.113338
			-0.793172 0.603878 0.078796
			-0.756996 0.637085 0.145186
			-0.400204 0.688164 -0.605199
			-0.507579 0.810528 0.292245
			0.030124 0.345463 -0.937949
			0.305335 0.040160 -0.951398
			-0.629769 0.603285 0.489325
			0.404172 -0.051687 -0.913221
			0.903619 -0.137545 -0.405652
			0.920587 -0.322741 0.219908
			0.952881 -0.280670 -0.115069
			0.997637 0.060748 0.032089
			0.833492 0.185502 0.520461
			0.746817 0.224889 0.625850
			0.714508 0.011395 0.699535
			0.378776 0.147170 0.913712
			-0.239986 0.696980 0.675741
			-0.601348 0.779822 0.173948
			-0.584124 0.802091 -0.124298
			-0.871033 0.488057 0.055687
			-0.686141 0.527057 -0.501419
			-0.374423 0.132901 -0.917684
			-0.775558 0.631265 -0.003865
			-0.547743 0.202639 0.811735
			-0.704266 0.440556 0.556705
			-0.072864 -0.210649 -0.974842
			0.215473 -0.275940 -0.936711
			-0.954475 -0.233465 0.185664
			0.255383 -0.217120 -0.942145
			0.393700 -0.184157 -0.900603
			0.818733 -0.532809 -0.213988
			0.735468 -0.624641 0.262507
			0.726901 -0.660640 -0.187534
			0.740301 -0.383402 -0.552230
			0.964108 -0.208637 0.164215
			0.792113 -0.028527 0.609708
			0.771727 0.025582 0.635439
			0.619348 -0.206803 0.757390
			0.269367 -0.124214 0.954993
			-0.258592 0.194416 0.946221
			-0.451974 0.746288 0.488645
			-0.250486 0.963816 0.091184
			-0.306611 0.871868 -0.381886
			-0.646010 0.394715 -0.653353
			-0.684374 0.047702 -0.727570
			-0.974373 0.218788 -0.052252
			-0.321769 -0.135881 -0.937017
			-0.911812 0.044326 0.408209
			-0.505361 -0.248063 0.826484
			-0.532055 -0.149172 0.833465
			-0.098508 -0.155848 -0.982857
			0.138323 -0.219007 -0.965869
			-0.574913 -0.069603 -0.815249
			-0.914565 -0.396528 -0.079605
			0.225142 -0.242773 -0.943596
			0.419725 -0.673850 -0.608077
			0.484938 -0.863571 0.138127
			0.361388 -0.908773 0.208637
			0.305868 -0.836201 -0.455207
			0.661047 -0.700060 -0.270059
			0.754510 -0.104584 0.647902
			0.689477 -0.141916 0.710269
			0.532596 -0.274936 0.800470
			0.252167 -0.258192 0.932603
			-0.167655 -0.023060 0.985576
			-0.685360 0.163314 0.709655
			-0.631932 0.765931 -0.118371
			-0.514698 0.346810 -0.784097
			-0.854453 -0.313704 -0.414127
			-0.861584 -0.438283 0.256088
			-0.567517 -0.400668 -0.719297
			-0.635548 -0.595824 0.490991
			-0.356523 -0.534972 0.765961
			-0.144107 -0.650226 -0.745949
			0.160856 -0.674351 -0.720677
			-0.497455 -0.230179 -0.836395
			-0.640030 -0.231223 -0.732733
			-0.454635 -0.488929 -0.744483
			-0.577262 -0.771896 -0.266355
			-0.387869 -0.791064 0.473049
			0.158099 -0.971887 -0.174472
			0.166571 -0.969012 0.182403
			-0.050602 -0.971722 -0.230642
			-0.071392 -0.922977 0.378174
			0.061509 -0.838021 -0.542160
			0.267313 -0.891965 -0.364613
			0.622956 -0.662234 0.416380
			0.568347 -0.130603 0.812357
			0.438835 -0.285951 0.851854
			0.169195 -0.271719 0.947387
			-0.101403 -0.241779 0.965018
			-0.766195 -0.382196 0.516596
			-0.983280 0.080624 -0.163279
			-0.608060 -0.763817 0.216443
			-0.418887 -0.782099 0.461363
			-0.431624 -0.902028 0.006833
			-0.164439 -0.826862 0.537828
			-0.098514 -0.994209 -0.042948
			-0.562119 -0.557240 -0.611151
			-0.865506 -0.465356 -0.185320
			-0.382279 -0.684735 -0.620484
			-0.294580 -0.694379 -0.656552
			-0.054958 -0.975482 0.213106
			0.141826 -0.986704 -0.079371
			-0.122460 -0.862297 -0.491372
			0.412827 -0.462902 0.784407
			0.042549 -0.452698 0.890648
			-0.436671 -0.569602 0.696328
			-0.714662 -0.698365 0.039292
			-0.252585 -0.919024 0.302649
			-0.526559 -0.803691 -0.277157
			-0.224112 -0.967776 -0.114819
			-0.026406 -0.900940 0.433138
			-0.386625 -0.899922 0.201648
		</DataArray>
	</PointData>
	<Points>
		<DataArray type="Float32" NumberOfComponents="3" format="ascii">
			-0.000231 0.016249 0.015996
			0.004989 0.007692 0.019849
			-0.005860 0.013279 0.018383
			-0.000128 0.018877 0.012527
			0.007146 0.016125 0.014615
			0.011739 0.015966 0.010598
			-0.009046 0.006291 0.020633
			-0.005845 -0.002121 0.022839
			0.002871 -0.006548 0.022356
			0.011208 -0.000887 0.020728
			0.015101 0.004164 0.016028
			0.013188 0.012429 0.013716
			-0.006135 0.016495 0.014672
			-0.011837 0.010363 0.017285
			-0.001271 0.021308 0.006770
			0.007935 0.019701 0.006004
			0.017950 0.010411 0.009331
			0.015119 0.016048 0.004274
			-0.012905 0.001715 0.019825
			-0.007802 -0.005448 0.021445
			0.002542 -0.009522 0.021427
			0.011326 -0.006751 0.019869
			0.016672 -0.003108 0.016038
			0.019173 0.001930 0.012808
			-0.008154 0.019192 0.009137
			-0.013978 0.013950 0.011890
			-0.016887 0.005730 0.015334
			-0.002872 0.022348 0.001225
			0.002997 0.022200 -0.000749
			0.009428 0.020082 -0.002133
			0.020362 0.009689 0.002806
			0.016515 0.015206 -0.003533
			-0.014315 -0.004399 0.018485
			-0.007054 -0.010546 0.020073
			0.003269 -0.012411 0.019906
			0.012134 -0.010553 0.017498
			0.018932 -0.005899 0.012339
			0.022634 0.001342 0.005498
			-0.009595 0.020270 0.003545
			-0.015942 0.015534 0.006273
			-0.020188 0.006679 0.009991
			-0.019115 -0.002225 0.013797
			-0.011896 0.019605 -0.002614
			-0.005393 0.021704 -0.004157
			0.000812 0.021757 -0.006549
			0.006857 0.019940 -0.008752
			0.023668 -0.000449 0.002163
			0.021108 0.009162 -0.003095
			0.014755 0.013512 -0.011243
			-0.013470 -0.010096 0.016630
			-0.005329 -0.014178 0.017954
			0.004324 -0.016388 0.016633
			0.014715 -0.012908 0.012949
			0.020537 -0.008721 0.007868
			-0.017738 0.014896 0.000068
			-0.021953 0.006621 0.004343
			-0.021570 -0.003732 0.008456
			-0.015898 -0.011757 0.012694
			-0.014417 0.016801 -0.006918
			-0.020351 0.011200 -0.002394
			-0.007258 0.019490 -0.009780
			0.000320 0.018861 -0.013037
			0.007334 0.015084 -0.015925
			0.022791 -0.004367 -0.004003
			0.019910 0.005696 -0.010259
			0.012571 0.009620 -0.017283
			-0.007124 -0.016009 0.015576
			0.003867 -0.018270 0.014645
			0.014582 -0.015782 0.009243
			0.021420 -0.010242 0.002648
			-0.023306 0.001321 0.001438
			-0.021358 -0.007808 0.005825
			-0.014238 -0.014437 0.012889
			-0.004502 -0.017899 0.014446
			-0.008289 0.016828 -0.013798
			-0.014822 0.014765 -0.010719
			-0.020496 0.008939 -0.006903
			-0.002778 0.015565 -0.017502
			0.001818 0.013495 -0.019306
			0.006012 0.008292 -0.021022
			0.019569 -0.004878 -0.012116
			0.017256 0.001825 -0.016042
			0.011488 -0.000378 -0.020707
			0.007001 -0.019318 0.011516
			0.015056 -0.017412 0.002375
			0.019469 -0.012535 -0.004783
			-0.023825 0.000763 -0.002906
			-0.022648 -0.006854 0.001531
			-0.015732 -0.014041 0.006706
			-0.006677 -0.017599 0.009747
			-0.016025 0.010782 -0.013491
			-0.009210 0.012226 -0.017493
			-0.020129 0.004045 -0.009552
			-0.021511 -0.003625 -0.007265
			-0.003455 0.009989 -0.021234
			0.002724 0.005694 -0.022603
			0.005563 -0.001754 -0.022982
			0.016286 -0.015554 -0.007937
			0.014932 -0.007359 -0.016757
			0.009215 -0.009257 -0.019399
			0.001585 -0.019788 0.008563
			0.007335 -0.020501 0.005703
			0.013460 -0.018739 -0.001127
			-0.018061 -0.012253 -0.000182
			-0.010437 -0.016572 0.003200
			-0.002957 -0.019128 0.003334
			-0.015296 -0.001319 -0.014603
			-0.008829 0.003803 -0.017091
			-0.018853 -0.009408 -0.010973
			-0.016002 -0.016722 -0.005454
			-0.003693 0.001468 -0.020679
			0.002095 -0.002059 -0.023874
			0.010527 -0.015612 -0.013753
			0.005419 -0.009303 -0.021756
			0.003389 -0.019542 0.000597
			0.008729 -0.018849 -0.005394
			-0.009969 -0.020660 -0.002961
			-0.001046 -0.021786 -0.005377
			-0.015530 -0.007323 -0.023478
			-0.019411 -0.015170 -0.018830
			-0.008535 -0.003081 -0.026726
			-0.017601 -0.021184 -0.012880
			-0.015021 -0.027233 -0.009900
			-0.001939 -0.006393 -0.030083
			0.001165 -0.014049 -0.030019
			0.006636 -0.015123 -0.017010
			0.001209 -0.021305 -0.027504
			0.005509 -0.019496 -0.011381
			-0.009765 -0.030086 -0.008908
			-0.003169 -0.030820 -0.012762
			-0.011483 -0.003809 -0.032831
			-0.016806 -0.008844 -0.028205
			-0.020134 -0.017052 -0.023290
			-0.020545 -0.025046 -0.019211
			-0.006014 -0.005939 -0.036842
			-0.017972 -0.033184 -0.012527
			-0.015056 -0.035639 -0.010196
			-0.001224 -0.010334 -0.038394
			0.001167 -0.016472 -0.038706
			0.000700 -0.028023 -0.022321
			-0.001463 -0.032025 -0.030805
			-0.000933 -0.022463 -0.035786
			-0.005763 -0.038989 -0.015135
			-0.000785 -0.037946 -0.022113
			-0.013195 -0.002509 -0.039175
			-0.007972 -0.003920 -0.042155
			-0.020362 -0.007025 -0.034971
			-0.022110 -0.015071 -0.034508
			-0.023246 -0.023602 -0.028851
			-0.023556 -0.033027 -0.020398
			-0.003924 -0.007522 -0.044892
			-0.021062 -0.040066 -0.015185
			-0.018486 -0.044448 -0.010629
			-0.002858 -0.012586 -0.045958
			-0.004371 -0.028440 -0.038759
			-0.004235 -0.019408 -0.043730
			-0.001999 -0.045394 -0.023068
			-0.002805 -0.037534 -0.032086
			-0.010071 -0.046123 -0.015360
			-0.017247 -0.000586 -0.043502
			-0.012004 -0.000865 -0.048562
			-0.008323 -0.007116 -0.050702
			-0.027767 -0.001667 -0.031445
			-0.029679 -0.010885 -0.035328
			-0.030359 -0.020288 -0.033889
			-0.030966 -0.027359 -0.027814
			-0.028823 -0.035113 -0.024327
			-0.007637 -0.016586 -0.050374
			-0.025493 -0.043109 -0.018094
			-0.023523 -0.047499 -0.013598
			-0.020854 -0.050377 -0.007626
			-0.007520 -0.033175 -0.043729
			-0.008566 -0.025991 -0.047299
			-0.002723 -0.047537 -0.032967
			-0.005256 -0.040207 -0.038148
			-0.016306 -0.052402 -0.013577
			-0.006137 -0.053581 -0.020366
			-0.001262 -0.051286 -0.026582
			-0.018016 0.000384 -0.048029
			-0.011725 -0.008912 -0.053437
			-0.010338 -0.019029 -0.052517
			-0.028238 0.001529 -0.033470
			-0.034347 -0.002198 -0.027448
			-0.036590 -0.016396 -0.030556
			-0.036414 -0.027193 -0.028026
			-0.034456 -0.037520 -0.026660
			-0.030923 -0.045095 -0.020033
			-0.010704 -0.036531 -0.048042
			-0.010650 -0.028868 -0.052510
			-0.029872 -0.050149 -0.010264
			-0.026152 -0.053521 -0.005437
			-0.020617 -0.055760 -0.007174
			-0.001856 -0.053838 -0.032041
			-0.004945 -0.049910 -0.038563
			-0.008160 -0.043344 -0.044087
			-0.001183 -0.056632 -0.025870
			-0.018157 -0.056972 -0.013781
			-0.011573 -0.058067 -0.018605
			-0.005974 -0.058574 -0.021027
			-0.022010 -0.001490 -0.051099
			-0.031790 0.001131 -0.039246
			-0.017977 -0.010699 -0.055396
			-0.016230 -0.019954 -0.056995
			-0.038405 -0.001061 -0.030809
			-0.040456 -0.017302 -0.032004
			-0.041367 -0.026708 -0.032233
			-0.039966 -0.036133 -0.032459
			-0.032402 -0.047147 -0.027590
			-0.032172 -0.053610 -0.013264
			-0.015321 -0.037972 -0.052372
			-0.014609 -0.030100 -0.057144
			-0.028268 -0.056835 -0.006964
			-0.021967 -0.059496 -0.008140
			-0.018269 -0.061094 -0.016283
			-0.001289 -0.059920 -0.034035
			-0.005997 -0.054441 -0.042422
			-0.012263 -0.048723 -0.047921
			0.000168 -0.062742 -0.028032
			-0.011382 -0.063738 -0.019449
			-0.003789 -0.064376 -0.022251
			-0.025225 -0.005983 -0.052584
			-0.037273 -0.003633 -0.044020
			-0.040598 -0.007215 -0.036993
			-0.021493 -0.018084 -0.059775
			-0.041665 -0.015310 -0.038307
			-0.041489 -0.026177 -0.040364
			-0.039211 -0.034851 -0.040567
			-0.034146 -0.051667 -0.035668
			-0.028892 -0.058757 -0.025000
			-0.028372 -0.061844 -0.032670
			-0.031442 -0.060415 -0.014480
			-0.020213 -0.039424 -0.053479
			-0.018689 -0.029380 -0.060131
			-0.026994 -0.062049 -0.009041
			-0.019518 -0.066033 -0.018600
			-0.001048 -0.067201 -0.037855
			0.000876 -0.069216 -0.028062
			-0.007306 -0.065462 -0.044807
			-0.017773 -0.047836 -0.051391
			-0.011946 -0.064307 -0.048819
			-0.005010 -0.070301 -0.021905
			-0.013216 -0.068743 -0.019971
			-0.027816 -0.018831 -0.057752
			-0.036064 -0.017200 -0.052350
			-0.039517 -0.019199 -0.046668
			-0.025539 -0.032225 -0.057695
			-0.038282 -0.028578 -0.048310
			-0.029457 -0.063076 -0.040148
			-0.031979 -0.054934 -0.042796
			-0.035077 -0.041693 -0.045604
			-0.024444 -0.073187 -0.034666
			-0.025576 -0.066002 -0.022482
			-0.026340 -0.042835 -0.051168
			0.003513 -0.083414 -0.036369
			0.004226 -0.083414 -0.028976
			-0.001304 -0.084573 -0.023301
			-0.018165 -0.065224 -0.049828
			-0.024188 -0.053013 -0.049113
			-0.005632 -0.083305 -0.045525
			-0.010284 -0.085186 -0.023144
			-0.013411 -0.076417 -0.022749
			-0.032492 -0.031288 -0.054275
			-0.025412 -0.064257 -0.045827
			-0.017287 -0.088350 -0.030089
			-0.019939 -0.086157 -0.044744
			0.005540 -0.114743 -0.043213
			0.009812 -0.107347 -0.031815
			0.004528 -0.113007 -0.021847
			-0.014239 -0.085334 -0.049475
			-0.007382 -0.115449 -0.048291
			-0.009268 -0.114730 -0.027538
			-0.012939 -0.116932 -0.044274
			0.011619 -0.145764 -0.043644
			0.017882 -0.143353 -0.032943
			0.010902 -0.143528 -0.019299
			-0.000864 -0.146576 -0.025235
			0.001865 -0.147796 -0.045509
			-0.004374 -0.149026 -0.039202
			0.018082 -0.178401 -0.041596
			0.023297 -0.175554 -0.031519
			0.016363 -0.175162 -0.017704
			0.004176 -0.175151 -0.023265
			0.001923 -0.177528 -0.034976
			0.007424 -0.176914 -0.042942
			0.021406 -0.206374 -0.038906
			0.026472 -0.204443 -0.025192
			0.016464 -0.204587 -0.015594
			0.007675 -0.206800 -0.020795
			0.006021 -0.208076 -0.032367
			0.011473 -0.207960 -0.039890
			0.025387 -0.241751 -0.034485
			0.029410 -0.239962 -0.021973
			0.020443 -0.238952 -0.011912
			0.010404 -0.239368 -0.016410
			0.008606 -0.242416 -0.028143
			0.015509 -0.242579 -0.036105
			0.028119 -0.274641 -0.029057
			0.031434 -0.273026 -0.018399
			0.022306 -0.270831 -0.007823
			0.011078 -0.272479 -0.012700
			0.009960 -0.275061 -0.025847
			0.017415 -0.276413 -0.031713
			0.017945 -0.307083 -0.028254
			0.025627 -0.306786 -0.026879
			0.031119 -0.305174 -0.012800
			0.024854 -0.303786 -0.003349
			0.015246 -0.303605 -0.005413
			0.008775 -0.304867 -0.013732
			0.010290 -0.306907 -0.024542
			0.016176 -0.340184 -0.025501
			0.027080 -0.340585 -0.023385
			0.030771 -0.341299 -0.009413
			0.023181 -0.338525 0.002782
			0.013527 -0.337084 0.000523
			0.008330 -0.337793 -0.009367
			0.007378 -0.339171 -0.021018
			0.013534 -0.367059 -0.025171
			0.027900 -0.369993 -0.019833
			0.027768 -0.368313 -0.003541
			0.023419 -0.365258 0.007055
			0.012697 -0.362424 0.009179
			0.006174 -0.367552 -0.006923
			0.004368 -0.366642 -0.021177
			-0.000048 -0.379953 -0.023607
			0.012765 -0.381437 -0.026484
			0.027268 -0.386524 -0.021920
			0.027309 -0.384931 -0.000695
			0.020121 -0.378024 0.012742
			0.010335 -0.375358 0.017381
			0.006113 -0.377939 0.008525
			0.004328 -0.380700 -0.003954
			-0.005699 -0.386908 -0.029053
			0.009146 -0.394172 -0.032198
			-0.002985 -0.386950 -0.015038
			0.020181 -0.397334 -0.029558
			0.032647 -0.397236 -0.022258
			0.030520 -0.395803 -0.009576
			0.028868 -0.395923 0.000779
			0.025027 -0.391159 0.012077
			0.018912 -0.388099 0.019729
			0.005162 -0.387986 0.032707
			0.009414 -0.382211 0.022673
			0.002396 -0.386063 0.012821
			0.001323 -0.387863 -0.000854
			-0.012232 -0.391566 -0.029526
			-0.012328 -0.390087 -0.014770
			-0.000538 -0.398518 -0.036687
			0.007552 -0.402182 -0.034852
			-0.009174 -0.392127 -0.009558
			0.018756 -0.404484 -0.030218
			0.032790 -0.405952 -0.022412
			0.030181 -0.405345 -0.009843
			0.027700 -0.406431 -0.000779
			0.030567 -0.405352 0.006773
			0.023904 -0.399990 0.017009
			0.017303 -0.394771 0.026612
			0.015551 -0.402297 0.029460
			0.010005 -0.397918 0.036100
			0.001287 -0.394027 0.036893
			-0.002663 -0.391301 0.025435
			-0.003794 -0.392524 0.016026
			-0.004302 -0.394464 0.001394
			-0.019528 -0.397000 -0.027984
			-0.012625 -0.402755 -0.035657
			-0.020666 -0.395546 -0.022320
			-0.013495 -0.400649 -0.006770
			-0.019293 -0.397443 -0.012363
			-0.005010 -0.406224 -0.037604
			0.005052 -0.408443 -0.034828
			-0.004584 -0.400066 0.001001
			0.014729 -0.411899 -0.030500
			0.021865 -0.413354 -0.028615
			0.028530 -0.414204 -0.023494
			0.027226 -0.413645 -0.011631
			0.023057 -0.412977 -0.000948
			0.027373 -0.413810 0.005149
			0.031050 -0.414385 0.009230
			0.027607 -0.410568 0.015333
			0.022560 -0.407738 0.020442
			0.013152 -0.409421 0.030114
			0.005049 -0.402633 0.037599
			-0.009034 -0.397554 0.035583
			-0.017334 -0.394122 0.027625
			-0.005446 -0.393543 0.027908
			-0.012074 -0.392955 0.018540
			-0.010194 -0.398362 0.012557
			-0.023932 -0.406220 -0.030105
			-0.025088 -0.404414 -0.023577
			-0.015319 -0.410292 -0.031051
			-0.023062 -0.405472 -0.014314
			-0.005337 -0.408388 -0.006800
			-0.018855 -0.408765 -0.009185
			-0.009225 -0.413578 -0.032872
			0.000482 -0.416642 -0.032571
			-0.003300 -0.408863 0.008809
			0.001693 -0.410554 0.001180
			0.014050 -0.417720 -0.029280
			0.020476 -0.421304 -0.026483
			0.020302 -0.421241 -0.015227
			0.016788 -0.417887 -0.005210
			0.018400 -0.418868 0.003256
			0.026733 -0.421107 0.010674
			0.025236 -0.417231 0.017874
			0.019461 -0.413299 0.022092
			0.010657 -0.414317 0.030485
			0.000515 -0.411863 0.035792
			-0.009542 -0.409211 0.036214
			-0.022593 -0.408518 0.033393
			-0.019620 -0.395822 0.020643
			-0.018969 -0.403336 0.012843
			-0.023971 -0.412954 -0.028447
			-0.024449 -0.410552 -0.019996
			-0.018536 -0.417224 -0.032297
			-0.017524 -0.415397 -0.012922
			-0.007942 -0.416280 -0.008150
			-0.010265 -0.422335 -0.032866
			0.003118 -0.423059 -0.030607
			-0.015479 -0.415554 0.013811
			-0.020488 -0.409831 0.014021
			-0.006812 -0.422000 0.013330
			0.004847 -0.416357 0.000422
			0.004726 -0.417706 -0.006347
			0.011095 -0.423568 -0.026484
			0.011819 -0.424598 -0.018466
			0.010713 -0.418415 -0.000554
			0.009954 -0.421177 -0.009929
			0.011755 -0.421603 0.004624
			0.016979 -0.425625 0.012174
			0.019867 -0.425175 0.021449
			0.014997 -0.418886 0.025134
			0.007403 -0.420808 0.029193
			0.001160 -0.417849 0.033890
			-0.009639 -0.415455 0.035550
			-0.020124 -0.414476 0.033465
			-0.024363 -0.403513 0.020823
			-0.016942 -0.419300 -0.019068
			-0.011985 -0.418955 -0.013377
			-0.014237 -0.421751 -0.025091
			-0.001229 -0.420783 -0.011534
			-0.003389 -0.424534 -0.023944
			-0.016686 -0.420793 0.017901
			-0.023141 -0.415806 0.022726
			-0.006080 -0.426428 0.015528
			0.003963 -0.421652 0.006911
			0.003671 -0.424559 -0.017866
			0.006725 -0.430363 0.020595
			0.002155 -0.429172 0.015122
			0.009621 -0.428067 0.027445
			-0.006623 -0.425121 0.033693
			-0.015943 -0.422695 0.031052
			-0.018072 -0.422181 0.023903
			-0.007066 -0.422840 -0.017635
			-0.011288 -0.426908 0.020617
			-0.003980 -0.429494 0.020282
			-0.000954 -0.428210 0.031015
			-0.010445 -0.427177 0.026867
		</DataArray>
	</Points>
			<Polys>
				<DataArray type="Int32" Name="connectivity" format="ascii">
					2 1 0 
					0 3 2 
					0 1 4 
					4 5 0 
					5 3 0 
					6 1 2 
					7 1 6 
					8 1 7 
					9 1 8 
					10 1 9 
					11 1 10 
					4 1 11 
					3 12 2 
					12 13 2 
					2 13 6 
					3 14 12 
					5 15 3 
					15 14 3 
					11 16 4 
					16 5 4 
					16 17 5 
					17 15 5 
					13 18 6 
					6 18 7 
					18 19 7 
					7 19 8 
					19 20 8 
					8 20 9 
					20 21 9 
					9 21 10 
					21 22 10 
					22 23 10 