<?xml version="1.0"?>
<VTKFile type="PolyData" version="0.1" byte_order="LittleEndian" compressor="vtkZLibDataCompressor">
	<PolyData>
		<Piece NumberOfPoints="456" NumberOfVerts="0" NumberOfLines="0" NumberOfStrips="0" NumberOfPolys="908">
		<PointData Normals="Normals">
		<DataArray type="Float32" Name="Normals" NumberOfComponents="3" format="ascii">
			0.320796 0.769227 0.552611
			0.526536 0.339365 0.779482
			0.148521 0.594978 0.789901
			0.246942 0.849914 0.465475
			0.562181 0.731801 0.385253
			0.531264 0.816506 0.226005
			0.111418 0.291650 0.950014
			0.208420 0.020110 0.977833
			0.421356 -0.128079 0.897806
			0.713875 0.009660 0.700207
			0.844619 0.216774 0.489518
			0.782794 0.478885 0.397369
			-0.047410 0.792925 0.607472
			-0.210974 0.522950 0.825841
			0.107669 0.948950 0.296481
			0.402855 0.907854 0.116228
			0.825174 0.553330 0.113637
			0.659743 0.748387 -0.068242
			-0.178115 0.089363 0.979943
			0.070773 -0.235791 0.969223
			0.423850 -0.321988 0.846566
			0.760984 -0.213477 0.612642
			0.905680 -0.077761 0.416769
			0.958254 0.196705 0.207499
			-0.157444 0.850344 0.502122
			-0.365406 0.665947 0.650379
			-0.455562 0.289224 0.841911
			-0.113617 0.982363 0.148505
			0.138411 0.989866 -0.031728
			0.363577 0.910730 -0.195915
			0.883459 0.443172 -0.151985
			0.588724 0.723010 -0.361470
			-0.279298 -0.164826 0.945952
			0.049511 -0.429541 0.901689
			0.410593 -0.518612 0.749970
			0.756897 -0.450298 0.473645
			0.952538 -0.218810 0.211644
			0.996694 0.079951 -0.014492
			-0.347873 0.870040 0.349307
			-0.545484 0.626689 0.556515
			-0.658156 0.271757 0.702125
			-0.553355 -0.122609 0.823872
			-0.503445 0.857633 0.104925
			-0.265475 0.960547 -0.082905
			-0.035822 0.964886 -0.260214
			0.203153 0.862790 -0.462949
			0.942266 0.078440 -0.325547
			0.768964 0.433464 -0.469898
			0.443484 0.619514 -0.647707
			-0.279386 -0.470998 0.836722
			0.081947 -0.643830 0.760768
			0.479917 -0.688124 0.544210
			0.787014 -0.566802 0.243606
			0.960983 -0.275454 -0.025244
			-0.710366 0.623924 0.325729
			-0.830434 0.249269 0.498242
			-0.758337 -0.191422 0.623123
			-0.422350 -0.494927 0.759386
			-0.601948 0.796145 -0.061736
			-0.805102 0.557281 0.203098
			-0.372867 0.883379 -0.283920
			-0.142995 0.847320 -0.511470
			0.078771 0.682565 -0.726567
			0.846230 -0.109928 -0.521353
			0.671442 0.261126 -0.693527
			0.270622 0.408957 -0.871502
			-0.044542 -0.744877 0.665713
			0.416414 -0.775323 0.474841
			0.689887 -0.715697 0.108780
			0.849864 -0.471317 -0.235780
			-0.865612 0.219278 0.450149
			-0.801551 -0.214087 0.558286
			-0.535654 -0.614363 0.579338
			-0.090443 -0.830276 0.549965
			-0.581156 0.725779 -0.368107
			-0.810399 0.572877 -0.122740
			-0.954366 0.295188 0.045296
			-0.394823 0.717589 -0.573744
			-0.183875 0.584304 -0.790430
			-0.027315 0.343994 -0.938575
			0.655734 -0.275352 -0.702989
			0.506099 0.072997 -0.859380
			0.143464 0.007563 -0.989627
			0.307169 -0.869563 0.386662
			0.706229 -0.707669 0.021102
			0.737092 -0.571642 -0.360446
			-0.952041 0.019490 0.305348
			-0.808226 -0.497809 0.314574
			-0.474986 -0.845054 0.245504
			-0.216783 -0.951240 0.219425
			-0.858724 0.361126 -0.363566
			-0.724614 0.304211 -0.618377
			-0.970595 0.137306 -0.197717
			-0.973954 -0.220917 0.051085
			-0.619935 0.244516 -0.745582
			-0.337786 0.214342 -0.916492
			-0.045752 -0.013800 -0.998857
			0.458010 -0.613398 -0.643405
			0.349803 -0.312349 -0.883219
			0.164438 -0.348244 -0.922869
			-0.086422 -0.982265 0.166393
			0.138849 -0.990226 -0.013161
			0.378991 -0.888146 -0.259929
			-0.649132 -0.686539 0.327554
			-0.259620 -0.909328 0.325147
			-0.131649 -0.975375 0.176955
			-0.924949 0.207058 -0.318743
			-0.767238 0.365731 -0.526865
			-0.983767 -0.063698 0.167768
			-0.713115 -0.396135 0.578398
			-0.499504 0.466458 -0.730009
			0.030624 0.208394 -0.977566
			0.212806 -0.740534 -0.637436
			0.467220 -0.193260 -0.862761
			0.058895 -0.998263 0.001165
			0.160733 -0.945738 -0.282392
			-0.103522 -0.654160 0.749238
			0.365301 -0.842128 0.396707
			-0.753340 0.648301 0.110383
			-0.891595 0.240605 0.383624
			-0.209727 0.927394 -0.309765
			-0.733160 -0.051127 0.678132
			-0.318218 -0.192038 0.928363
			0.324152 0.717155 -0.616938
			0.763489 0.187824 -0.617906
			0.575333 -0.517302 -0.633554
			0.812958 -0.198466 -0.547458
			0.639792 -0.747816 -0.177305
			0.395809 -0.452709 0.798994
			0.831961 -0.485831 0.267973
			-0.091876 0.987879 0.125119
			-0.581768 0.677232 0.450448
			-0.802225 0.300473 0.515898
			-0.762480 0.184618 0.620112
			0.456552 0.851656 -0.257375
			-0.506582 0.073970 0.859013
			0.037263 -0.089582 0.995283
			0.738935 0.482874 -0.469901
			0.780536 -0.127231 -0.612026
			0.879050 -0.311033 -0.361290
			0.842450 -0.175114 -0.509522
			0.769566 -0.289728 -0.569057
			0.750206 -0.378115 0.542421
			0.962478 -0.270705 -0.018825
			0.097910 0.949417 0.298363
			0.506685 0.837863 -0.203114
			0.028321 0.516790 0.855643
			-0.363694 0.306157 0.879770
			-0.313205 0.551585 0.773083
			-0.452291 0.318605 0.833021
			0.591253 0.524233 -0.612861
			-0.425354 0.246803 0.870725
			0.179275 0.193758 0.964530
			0.619009 -0.038303 -0.784449
			0.729674 -0.202826 -0.653022
			0.682260 -0.255535 -0.684999
			0.949327 -0.309424 -0.055093
			0.853316 -0.122006 -0.506919
			0.831557 -0.286114 0.476079
			0.336317 0.904032 0.263850
			0.285776 0.874579 -0.391719
			0.408594 0.341668 -0.846353
			0.777267 0.333799 0.533323
			0.626211 -0.130065 0.768728
			0.555077 0.324838 0.765748
			0.156974 0.414477 0.896419
			-0.273612 0.320957 0.906710
			0.522278 -0.058699 -0.850752
			-0.207943 0.554098 0.806061
			-0.160275 0.647491 0.745028
			0.577139 0.293772 0.761977
			0.710494 -0.095578 -0.697181
			0.613166 -0.180815 -0.768982
			0.667099 -0.176477 -0.723765
			0.693354 -0.131078 -0.708576
			0.872307 -0.248747 0.420958
			0.884464 -0.157928 0.439068
			0.995823 0.083877 0.036086
			0.130588 0.954323 -0.268727
			-0.018244 0.357215 -0.933844
			0.249124 0.020803 -0.968248
			0.324746 0.897918 0.297125
			0.534557 0.127130 0.835516
			0.276814 0.102726 0.955416
			-0.118705 0.089631 0.988876
			-0.342773 0.070310 0.936783
			-0.581572 0.382251 0.718094
			0.600931 -0.244765 -0.760902
			0.503993 -0.100969 -0.857785
			-0.325823 0.561258 0.760808
			0.197081 0.248965 0.948249
			0.883490 -0.208986 0.419249
			0.837455 0.130388 -0.530724
			0.650363 0.036310 -0.758755
			0.559127 -0.104096 -0.822521
			0.965812 -0.009014 -0.259088
			0.817661 -0.318571 0.479522
			0.699973 -0.143625 0.699579
			0.852651 -0.005442 0.522453
			-0.362683 0.673664 -0.643923
			-0.417858 0.906941 -0.053408
			-0.213958 0.241539 -0.946510
			0.158028 0.188479 -0.969280
			-0.604437 0.580767 0.545313
			-0.560817 0.020405 0.827688
			-0.683606 -0.032436 0.729129
			-0.705060 -0.214257 0.676006
			-0.805998 -0.225381 0.547331
			-0.873836 0.026942 0.485474
			0.274702 -0.351936 -0.894808
			0.371175 -0.162193 -0.914288
			-0.337301 -0.205564 0.918679
			0.607448 -0.491766 0.623837
			0.794509 -0.441075 0.417382
			0.850369 0.162720 -0.500394
			0.635379 0.152756 -0.756940
			0.365881 -0.021571 -0.930412
			0.992738 0.064090 0.101801
			0.570782 -0.266899 0.776513
			0.748806 -0.062286 0.659857
			-0.494483 0.430032 -0.755354
			-0.757828 0.571768 -0.314290
			-0.920947 0.370556 0.120605
			-0.209120 0.206845 -0.955764
			-0.930360 0.083701 0.356967
			-0.974084 -0.070555 0.214897
			-0.956791 -0.261404 0.127350
			-0.890534 -0.349557 0.291135
			-0.922810 -0.308065 0.231337
			-0.819083 -0.348906 0.455377
			-0.805287 -0.428433 0.409827
			-0.152486 -0.403546 -0.902164
			-0.093482 -0.336986 -0.936857
			-0.082067 -0.772422 0.629785
			0.395019 -0.700985 0.593785
			0.766478 0.171309 -0.619004
			0.990552 0.137133 0.001219
			0.458058 0.067481 -0.886358
			-0.212463 -0.129440 -0.968558
			0.214870 0.003220 -0.976637
			0.726940 -0.035105 0.685804
			0.247892 -0.309779 0.917925
			-0.710782 0.189653 -0.677362
			-0.932121 0.151717 -0.328834
			-0.991675 0.059584 -0.114149
			-0.566840 -0.295981 -0.768822
			-0.972724 -0.201557 -0.114821
			-0.889086 -0.432174 0.150835
			-0.928162 -0.302216 -0.217211
			-0.898660 -0.325601 -0.293931
			-0.819693 -0.412672 0.397248
			-0.461232 -0.737422 0.493430
			-0.585624 -0.383573 -0.714085
			0.660529 0.164425 -0.732574
			0.978875 0.204271 0.008768
			0.695230 0.077452 0.714602
			-0.389228 -0.097243 -0.915995
			-0.696992 -0.210050 -0.685625
			0.195050 0.056416 -0.979169
			-0.027813 -0.146282 0.988852
			-0.360072 -0.351361 0.864230
			-0.841845 -0.209236 -0.497510
			-0.873437 -0.280837 -0.397791
			-0.687083 -0.240442 0.685642
			-0.957003 -0.248324 -0.149937
			0.494364 0.145747 -0.856950
			0.965101 0.200684 -0.168239
			0.456763 0.065146 0.887200
			-0.480054 -0.082440 -0.873357
			-0.320989 -0.058781 -0.945257
			-0.584619 -0.178038 0.791532
			-0.962882 -0.254496 -0.089948
			0.387410 0.078621 -0.918549
			0.945845 0.184783 -0.266893
			0.506889 0.112054 0.854697
			-0.586352 -0.108531 0.802754
			-0.470675 -0.147147 -0.869950
			-0.969261 -0.246037 0.000320
			0.406041 0.005436 -0.913839
			0.974221 0.126313 -0.186918
			0.502796 0.096770 0.858971
			-0.635719 -0.066945 0.769012
			-0.984234 -0.175559 0.021540
			-0.554147 -0.153497 -0.818144
			0.462711 -0.018608 -0.886314
			0.993174 0.116524 -0.005293
			0.355929 0.124359 0.926201
			-0.699022 -0.007287 0.715064
			-0.991155 -0.120971 -0.054573
			-0.552137 -0.138864 -0.822108
			0.522345 -0.044537 -0.851570
			0.995658 0.088457 0.028979
			0.346764 0.124621 0.929636
			-0.710723 0.023892 0.703066
			-0.985582 -0.082814 -0.147541
			-0.472816 -0.140804 -0.869839
			0.412351 -0.094735 -0.906086
			0.998673 0.031544 -0.040702
			0.378214 0.145611 0.914194
			-0.661269 0.081749 0.745680
			-0.991487 -0.012995 -0.129560
			-0.470761 -0.098234 -0.876775
			-0.112912 -0.086393 -0.989842
			0.722724 -0.069389 -0.687644
			0.995262 0.010714 0.096634
			0.457486 0.145126 0.877294
			-0.499463 0.123320 0.857513
			-0.955768 0.052881 0.289328
			-0.788898 -0.028449 -0.613864
			-0.183670 -0.051620 -0.981631
			0.655492 -0.083522 -0.750570
			0.999436 -0.017733 0.028537
			0.532837 0.159442 0.831061
			-0.552655 0.194331 0.810437
			-0.922019 0.093294 0.375736
			-0.880872 0.052035 -0.470486
			-0.177200 0.090776 -0.979979
			0.614288 0.000842 -0.789081
			0.994415 -0.037185 0.098775
			0.710286 0.160356 0.685406
			-0.462386 0.386152 0.798177
			-0.943611 0.173686 0.281834
			-0.957642 0.199697 -0.207467
			-0.634159 0.540418 -0.552984
			0.144863 0.242130 -0.959368
			0.853661 0.239849 -0.462314
			0.976618 0.134555 0.167671
			0.835155 0.156127 0.527391
			0.027489 0.539747 0.841378
			-0.889596 0.372638 0.264119
			-0.915536 0.360711 0.177996
			-0.449648 0.794153 -0.408823
			0.092330 0.408202 -0.908210
			-0.615256 0.742072 0.266062
			0.379452 0.198857 -0.903588
			0.798887 0.175349 -0.575354
			0.987279 0.098965 0.124446
			0.985317 0.136491 0.102574
			0.845022 0.297415 0.444389
			0.749127 0.419877 0.512360
			0.181427 0.693490 0.697249
			-0.842722 0.518892 0.143422
			-0.790218 0.603878 0.104341
			-0.752182 0.637085 0.168358
			-0.416693 0.688164 -0.593966
			-0.498959 0.810528 0.306730
			0.009971 0.345463 -0.938379
			0.287866 0.040160 -0.956828
			-0.616323 0.603285 0.506156
			0.389220 -0.051687 -0.919694
			0.897415 -0.137545 -0.419200
			0.923899 -0.322741 0.205549
			0.951096 -0.280670 -0.128996
			0.998015 0.060748 0.016559
			0.843838 0.185502 0.503515
			0.762061 0.224889 0.607197
			0.727126 0.011395 0.686410
			0.398784 0.147170 0.905159
			-0.222769 0.696980 0.681611
			-0.596294 0.779822 0.190553
			-0.587231 0.802091 -0.108677
			-0.869370 0.488057 0.077434
			-0.697391 0.527057 -0.485650
			-0.390708 0.132901 -0.910870
			-0.775427 0.631265 0.014789
			-0.531700 0.202639 0.822333
			-0.691614 0.440556 0.572347
			-0.087291 -0.210649 -0.973656
			0.203384 -0.275940 -0.939410
			-0.950543 -0.233465 0.204848
			0.246048 -0.217120 -0.944626
			0.385909 -0.184157 -0.903969
			0.817018 -0.532809 -0.220448
			0.737643 -0.624641 0.256332
			0.725191 -0.660640 -0.194041
			0.735725 -0.383402 -0.558311
			0.965351 -0.208637 0.156746
			0.798800 -0.028527 0.600921
			0.780233 0.025582 0.624965
			0.628422 -0.206803 0.749879
			0.286434 -0.124214 0.950014
			-0.237415 0.194416 0.951755
			-0.439475 0.746288 0.499916
			-0.248052 0.963816 0.097613
			-0.316546 0.871868 -0.373692
			-0.659981 0.394715 -0.639238
			-0.695075 0.047702 -0.717354
			-0.975098 0.218788 -0.036290
			-0.332324 -0.135881 -0.933326
			-0.905392 0.044326 0.422256
			-0.494629 -0.248063 0.832951
			-0.521504 -0.149172 0.840107
			-0.106801 -0.155848 -0.981990
			0.132730 -0.219007 -0.966653
			-0.585078 -0.069603 -0.807986
			-0.915389 -0.396528 -0.069486
			0.220558 -0.242773 -0.944678
			0.418659 -0.673850 -0.608812
			0.485187 -0.863571 0.137251
			0.362367 -0.908773 0.206932
			0.304109 -0.836201 -0.456385
			0.660527 -0.700060 -0.271329
			0.757919 -0.104584 0.643911
			0.695618 -0.141916 0.704256
			0.538825 -0.274936 0.796290
			0.261411 -0.258192 0.930054
			-0.155597 -0.023060 0.987552
			-0.676205 0.163314 0.718384
			-0.634571 0.765931 -0.103290
			-0.528192 0.346810 -0.775072
			-0.858138 -0.313704 -0.406436
			-0.858698 -0.438283 0.265603
			-0.571310 -0.400668 -0.716288
			-0.632162 -0.595824 0.495343
			-0.351843 -0.534972 0.768122
			-0.144748 -0.650226 -0.745825
			0.160689 -0.674351 -0.720715
			-0.503073 -0.230179 -0.833028
			-0.648548 -0.231223 -0.725204
			-0.455491 -0.488929 -0.743960
			-0.578859 -0.771896 -0.262867
			-0.385562 -0.791064 0.474931
			0.158135 -0.971887 -0.174439
			0.166370 -0.969012 0.182586
			-0.051583 -0.971722 -0.230425
			-0.070688 -0.922977 0.378307
			0.060700 -0.838021 -0.542251
			0.268038 -0.891965 -0.364080
			0.622289 -0.662234 0.417376
			0.571466 -0.130603 0.810166
			0.440692 -0.285951 0.850895
			0.173687 -0.271719 0.946573
			-0.094823 -0.241779 0.965687
			-0.762213 -0.382196 0.522453
			-0.985936 0.080624 -0.146387
			-0.607301 -0.763817 0.218562
			-0.417138 -0.782099 0.462945
			-0.431614 -0.902028 0.007422
			-0.163254 -0.826862 0.538189
			-0.098469 -0.994209 -0.043051
			-0.563459 -0.557240 -0.609916
			-0.866695 -0.465356 -0.179680
			-0.380612 -0.684735 -0.621508
			-0.295532 -0.694379 -0.656124
			-0.055185 -0.975482 0.213048
			0.142307 -0.986704 -0.078506
			-0.119972 -0.862297 -0.491986
			0.409605 -0.462902 0.786095
			0.041166 -0.452698 0.890713
			-0.436290 -0.569602 0.696567
			-0.714623 -0.698365 0.040002
			-0.252458 -0.919024 0.302755
			-0.525697 -0.803691 -0.278788
			-0.223496 -0.967776 -0.116014
			-0.028237 -0.900940 0.433023
			-0.387295 -0.899922 0.200358
		</DataArray>
	</PointData>
	<Points>
		<DataArray type="Float32" NumberOfComponents="3" format="ascii">
			0.005727 0.016249 0.014937
			0.011883 0.007692 0.016664
			0.001338 0.013279 0.019248
			0.004561 0.018877 0.011668
			0.012062 0.016125 0.010916
			0.014835 0.015966 0.005482
			-0.000928 0.006291 0.022510
			0.002685 -0.002121 0.023422
			0.010580 -0.006548 0.019902
			0.017880 -0.000887 0.015348
			0.019877 0.004164 0.009480
			0.017313 0.012429 0.007893
			-0.000243 0.016495 0.015901
			-0.004673 0.010363 0.020422
			0.001364 0.021308 0.006752
			0.009606 0.019701 0.002598
			0.020122 0.010411 0.002097
			0.015625 0.016048 -0.001645
			-0.004909 0.001715 0.023140
			0.000294 -0.005448 0.022818
			0.009894 -0.009522 0.019175
			0.017609 -0.006751 0.014594
			0.021288 -0.003108 0.009055
			0.022498 0.001930 0.005049
			-0.004147 0.019192 0.011523
			-0.008593 0.013950 0.016214
			-0.010169 0.005730 0.020418
			-0.002199 0.022348 0.002216
			0.002494 0.022200 -0.001822
			0.007943 0.020082 -0.005509
			0.019975 0.009689 -0.004845
			0.014030 0.015206 -0.009402
			-0.006825 -0.004399 0.022362
			0.000413 -0.010546 0.021272
			0.009998 -0.012411 0.017521
			0.017488 -0.010553 0.012148
			0.022072 -0.005899 0.004848
			0.023098 0.001342 -0.003005
			-0.007568 0.020270 0.006882
			-0.012479 0.015534 0.011738
			-0.015170 0.006679 0.016650
			-0.012939 -0.002225 0.019706
			-0.012010 0.019605 0.002027
			-0.006560 0.021704 -0.001826
			-0.001709 0.021757 -0.006374
			0.003081 0.019940 -0.010683
			0.022874 -0.000449 -0.006454
			0.018513 0.009162 -0.010601
			0.009561 0.013512 -0.015897
			-0.006794 -0.010096 0.020294
			0.001230 -0.014178 0.018688
			0.009798 -0.016388 0.014119
			0.018301 -0.012908 0.007020
			0.021992 -0.008721 0.000151
			-0.016451 0.014896 0.006633
			-0.018870 0.006621 0.012031
			-0.017157 -0.003732 0.015568
			-0.010471 -0.011757 0.017443
			-0.015955 0.016801 -0.001061
			-0.019808 0.011200 0.005250
			-0.010389 0.019490 -0.006355
			-0.004573 0.018861 -0.012213
			0.000911 0.015084 -0.017509
			0.019887 -0.004367 -0.011830
			0.014829 0.005696 -0.016787
			0.005370 0.009620 -0.020686
			-0.001306 -0.016009 0.017078
			0.008663 -0.018270 0.012425
			0.016878 -0.015782 0.003634
			0.020992 -0.010242 -0.005018
			-0.021232 0.001321 0.009719
			-0.017940 -0.007808 0.012971
			-0.008886 -0.014437 0.017025
			0.000740 -0.017899 0.015114
			-0.012826 0.016828 -0.009725
			-0.017737 0.014765 -0.004469
			-0.021601 0.008939 0.001068
			-0.009072 0.015565 -0.015223
			-0.005439 0.013495 -0.018613
			-0.002077 0.008292 -0.021766
			0.014005 -0.004878 -0.018265
			0.010328 0.001825 -0.021177
			0.003312 -0.000378 -0.023447
			0.010524 -0.019318 0.008419
			0.014953 -0.017412 -0.002954
			0.016585 -0.012535 -0.011263
			-0.023280 0.000763 0.005841
			-0.020651 -0.006854 0.009423
			-0.012428 -0.014041 0.011748
			-0.002915 -0.017599 0.011449
			-0.019859 0.010782 -0.006667
			-0.015004 0.012226 -0.012873
			-0.022221 0.004045 -0.001626
			-0.022689 -0.003625 0.000855
			-0.010996 0.009989 -0.018491
			-0.005665 0.005694 -0.022050
			-0.003007 -0.001754 -0.023454
			0.012537 -0.015554 -0.013079
			0.008068 -0.007359 -0.020944
			0.001823 -0.009257 -0.021399
			0.004420 -0.019788 0.007503
			0.008842 -0.020501 0.002853
			0.012256 -0.018739 -0.005678
			-0.016993 -0.012253 0.006123
			-0.008692 -0.016572 0.006604
			-0.001635 -0.019128 0.004146
			-0.019504 -0.001319 -0.008173
			-0.014410 0.003803 -0.012744
			-0.021504 -0.009408 -0.003663
			-0.016901 -0.016722 0.000398
			-0.010882 0.001468 -0.017968
			-0.006559 -0.002059 -0.023051
			0.005124 -0.015612 -0.016544
			-0.002558 -0.009303 -0.022274
			0.003389 -0.019542 -0.000600
			0.006349 -0.018849 -0.008062
			-0.010380 -0.020660 0.000622
			-0.002815 -0.021786 -0.004699
			-0.022808 -0.007323 -0.016498
			-0.024729 -0.015170 -0.010949
			-0.017487 -0.003081 -0.021939
			-0.020939 -0.021184 -0.006102
			-0.017476 -0.027233 -0.004273
			-0.012439 -0.006393 -0.027459
			-0.009324 -0.014049 -0.028558
			0.000338 -0.015123 -0.018255
			-0.008245 -0.021305 -0.026267
			0.001277 -0.019496 -0.012579
			-0.012179 -0.030086 -0.005136
			-0.007241 -0.030820 -0.010975
			-0.022399 -0.003809 -0.026609
			-0.025641 -0.008844 -0.020506
			-0.026925 -0.017052 -0.014927
			-0.025830 -0.025046 -0.011135
			-0.018651 -0.005939 -0.032336
			-0.021108 -0.033184 -0.005863
			-0.017574 -0.035639 -0.004668
			-0.014584 -0.010334 -0.035537
			-0.012259 -0.016472 -0.036732
			-0.006832 -0.028023 -0.021261
			-0.011618 -0.032025 -0.028568
			-0.013050 -0.022463 -0.033334
			-0.010391 -0.038989 -0.012422
			-0.007984 -0.037946 -0.020637
			-0.026289 -0.002509 -0.031901
			-0.022426 -0.003920 -0.036574
			-0.031387 -0.007025 -0.025542
			-0.032688 -0.015071 -0.024721
			-0.031655 -0.023602 -0.019255
			-0.028987 -0.033027 -0.011435
			-0.019487 -0.007522 -0.040632
			-0.024860 -0.040066 -0.007495
			-0.020925 -0.044448 -0.004106
			-0.018681 -0.012586 -0.042088
			-0.017113 -0.028440 -0.035051
			-0.018962 -0.019408 -0.039632
			-0.009307 -0.045394 -0.021202
			-0.013170 -0.037534 -0.029393
			-0.014467 -0.046123 -0.011317
			-0.031673 -0.000586 -0.034449
			-0.028579 -0.000865 -0.041056
			-0.025666 -0.007116 -0.044511
			-0.037164 -0.001667 -0.019459
			-0.040156 -0.010885 -0.022724
			-0.040116 -0.020288 -0.021466
			-0.038514 -0.027359 -0.015787
			-0.035233 -0.035113 -0.013459
			-0.024544 -0.016586 -0.044648
			-0.029973 -0.043109 -0.008881
			-0.026636 -0.047499 -0.005365
			-0.022196 -0.050377 -0.000614
			-0.021587 -0.033175 -0.038766
			-0.024017 -0.025991 -0.041639
			-0.013118 -0.047537 -0.030367
			-0.017393 -0.040207 -0.034357
			-0.019758 -0.052402 -0.007735
			-0.012234 -0.053581 -0.017400
			-0.009612 -0.051286 -0.024815
			-0.034044 0.000384 -0.038371
			-0.029743 -0.008912 -0.045917
			-0.027721 -0.019029 -0.045787
			-0.038384 0.001529 -0.021076
			-0.041877 -0.002198 -0.013396
			-0.044887 -0.016396 -0.016053
			-0.043718 -0.027193 -0.014148
			-0.041292 -0.037520 -0.013889
			-0.035723 -0.045095 -0.009022
			-0.025899 -0.036531 -0.041855
			-0.027622 -0.028868 -0.045910
			-0.031586 -0.050149 -0.000249
			-0.026534 -0.053521 0.003070
			-0.021826 -0.055760 -0.000363
			-0.011838 -0.053838 -0.029832
			-0.016940 -0.049910 -0.034994
			-0.021966 -0.043344 -0.039086
			-0.009200 -0.056632 -0.024207
			-0.021549 -0.056972 -0.007430
			-0.016785 -0.058067 -0.014083
			-0.012209 -0.058574 -0.018131
			-0.038809 -0.001490 -0.039868
			-0.043767 0.001131 -0.025204
			-0.036214 -0.010699 -0.045611
			-0.034753 -0.019954 -0.048000
			-0.046881 -0.001061 -0.015042
			-0.049002 -0.017302 -0.016116
			-0.049805 -0.026708 -0.016424
			-0.048420 -0.036133 -0.017503
			-0.039527 -0.047147 -0.015771
			-0.034711 -0.053610 -0.002467
			-0.031628 -0.037972 -0.044467
			-0.032852 -0.030100 -0.048986
			-0.029030 -0.056835 0.002204
			-0.023408 -0.059496 -0.000934
			-0.022401 -0.061094 -0.009852
			-0.011759 -0.059920 -0.031965
			-0.019013 -0.054441 -0.038394
			-0.026895 -0.048723 -0.041514
			-0.008450 -0.062742 -0.026729
			-0.016792 -0.063738 -0.015027
			-0.010412 -0.064376 -0.020027
			-0.042186 -0.005983 -0.040271
			-0.050485 -0.003633 -0.027898
			-0.051033 -0.007215 -0.020306
			-0.040729 -0.018084 -0.048746
			-0.052345 -0.015310 -0.021527
			-0.052667 -0.026177 -0.024015
			-0.050402 -0.034851 -0.025353
			-0.043674 -0.051667 -0.023039
			-0.035226 -0.058757 -0.014796
			-0.037053 -0.061844 -0.022347
			-0.034378 -0.060415 -0.004054
			-0.036557 -0.039424 -0.043956
			-0.037727 -0.029380 -0.050415
			-0.028466 -0.062049 -0.000296
			-0.024254 -0.066033 -0.011775
			-0.012487 -0.067201 -0.035752
			-0.007634 -0.069216 -0.027017
			-0.020621 -0.065462 -0.040446
			-0.033257 -0.047836 -0.043022
			-0.026306 -0.064307 -0.042826
			-0.011369 -0.070301 -0.019382
			-0.018634 -0.068743 -0.015044
			-0.045942 -0.018831 -0.044703
			-0.051888 -0.017200 -0.036725
			-0.053120 -0.019199 -0.030293
			-0.043254 -0.032225 -0.045935
			-0.052260 -0.028578 -0.032685
			-0.040356 -0.063076 -0.029171
			-0.043786 -0.054934 -0.030610
			-0.047975 -0.041693 -0.031756
			-0.033678 -0.073187 -0.025788
			-0.031207 -0.066002 -0.013627
			-0.041477 -0.042835 -0.039895
			-0.007188 -0.083414 -0.035824
			-0.004360 -0.083414 -0.028956
			-0.007984 -0.084573 -0.021929
			-0.032502 -0.065224 -0.041910
			-0.038434 -0.053013 -0.038987
			-0.018600 -0.083305 -0.041932
			-0.016526 -0.085186 -0.019191
			-0.019541 -0.076417 -0.017763
			-0.048709 -0.031288 -0.040360
			-0.038212 -0.064257 -0.035857
			-0.025170 -0.088350 -0.023889
			-0.031973 -0.086157 -0.037113
			-0.006065 -0.114743 -0.043142
			0.000851 -0.107347 -0.033282
			-0.001434 -0.113007 -0.022265
			-0.027906 -0.085334 -0.043264
			-0.019842 -0.115449 -0.044641
			-0.016210 -0.114730 -0.024114
			-0.024095 -0.116932 -0.039333
			0.000897 -0.145764 -0.045155
			0.009452 -0.143353 -0.036272
			0.005954 -0.143528 -0.021351
			-0.006829 -0.146576 -0.024309
			-0.008942 -0.147796 -0.044661
			-0.013474 -0.149026 -0.037073
			0.008922 -0.178401 -0.044470
			0.016053 -0.175554 -0.035756
			0.012212 -0.175162 -0.020786
			-0.000881 -0.175151 -0.023621
			-0.005508 -0.177528 -0.034593
			-0.001836 -0.176914 -0.043541
			0.013764 -0.206374 -0.042218
			0.021253 -0.204443 -0.029728
			0.013234 -0.204587 -0.018414
			0.003665 -0.206800 -0.021861
			-0.000080 -0.208076 -0.032922
			0.003879 -0.207960 -0.041325
			0.019674 -0.241751 -0.038034
			0.025566 -0.239962 -0.026347
			0.018290 -0.238952 -0.015010
			0.007669 -0.239368 -0.017853
			0.004110 -0.242416 -0.029141
			0.009692 -0.242579 -0.038081
			0.024156 -0.274641 -0.032426
			0.028780 -0.273026 -0.022323
			0.021082 -0.270831 -0.010692
			0.009329 -0.272479 -0.014035
			0.006570 -0.275061 -0.026909
			0.013252 -0.276413 -0.033666
			0.015016 -0.307083 -0.029914
			0.022789 -0.306786 -0.029324
			0.029649 -0.305174 -0.015911
			0.024375 -0.303786 -0.005899
			0.014604 -0.303605 -0.006961
			0.007323 -0.304867 -0.014558
			0.007769 -0.306907 -0.025452
			0.014300 -0.340184 -0.026599
			0.025337 -0.340585 -0.025264
			0.030025 -0.341299 -0.011573
			0.023323 -0.338525 0.001074
			0.013528 -0.337084 -0.000488
			0.007614 -0.337793 -0.009958
			0.005828 -0.339171 -0.021500
			0.012292 -0.367059 -0.025800
			0.026955 -0.369993 -0.021100
			0.027568 -0.368313 -0.004859
			0.023743 -0.365258 0.005869
			0.013163 -0.362424 0.008497
			0.005833 -0.367552 -0.007213
			0.003324 -0.366642 -0.021366
			-0.000934 -0.379953 -0.023589
			0.011796 -0.381437 -0.026930
			0.026556 -0.386524 -0.022777
			0.027271 -0.384931 -0.001602
			0.020606 -0.378024 0.011943
			0.011047 -0.375358 0.016937
			0.006443 -0.377939 0.008278
			0.004179 -0.380700 -0.004111
			-0.006612 -0.386908 -0.028859
			0.008331 -0.394172 -0.032419
			-0.003457 -0.386950 -0.014937
			0.019511 -0.397334 -0.030005
			0.032136 -0.397236 -0.022990
			0.030283 -0.395803 -0.010300
			0.028878 -0.395923 0.000094
			0.025354 -0.391159 0.011376
			0.019504 -0.388099 0.019143
			0.006160 -0.387986 0.032534
			0.010215 -0.382211 0.022323
			0.002808 -0.386063 0.012737
			0.001297 -0.387863 -0.000894
			-0.013039 -0.391566 -0.029179
			-0.012748 -0.390087 -0.014410
			-0.001326 -0.398518 -0.036667
			0.006913 -0.402182 -0.034984
			-0.009429 -0.392127 -0.009306
			0.018260 -0.404484 -0.030520
			0.032449 -0.405952 -0.022902
			0.030024 -0.405345 -0.010311
			0.027685 -0.406431 -0.001184
			0.030668 -0.405352 0.006296
			0.024243 -0.399990 0.016523
			0.017956 -0.394771 0.026176
			0.016085 -0.402297 0.029172
			0.010797 -0.397918 0.035871
			0.002222 -0.394027 0.036849
			-0.001957 -0.391301 0.025499
			-0.003365 -0.392524 0.016122
			-0.004265 -0.394464 0.001501
			-0.020161 -0.397000 -0.027532
			-0.013258 -0.402755 -0.035426
			-0.021196 -0.395546 -0.021817
			-0.013625 -0.400649 -0.006504
			-0.019565 -0.397443 -0.011928
			-0.005566 -0.406224 -0.037525
			0.004603 -0.408443 -0.034890
			-0.004563 -0.400066 0.001093
			0.014427 -0.411899 -0.030644
			0.021617 -0.413354 -0.028803
			0.028344 -0.414204 -0.023719
			0.027127 -0.413645 -0.011859
			0.023048 -0.412977 -0.001154
			0.027415 -0.413810 0.004923
			0.031120 -0.414385 0.008989
			0.027774 -0.410568 0.015028
			0.022834 -0.407738 0.020135
			0.013514 -0.409421 0.029954
			0.005721 -0.402633 0.037502
			-0.008237 -0.397554 0.035776
			-0.016630 -0.394122 0.028055
			-0.004725 -0.393543 0.028039
			-0.011582 -0.392955 0.018851
			-0.009920 -0.398362 0.012774
			-0.024375 -0.406220 -0.029747
			-0.025471 -0.404414 -0.023163
			-0.015668 -0.410292 -0.030876
			-0.023281 -0.405472 -0.013956
			-0.005425 -0.408388 -0.006730
			-0.018969 -0.408765 -0.008946
			-0.009502 -0.413578 -0.032793
			0.000294 -0.416642 -0.032573
			-0.003190 -0.408863 0.008849
			0.001706 -0.410554 0.001161
			0.013907 -0.417720 -0.029348
			0.020429 -0.421304 -0.026519
			0.020274 -0.421241 -0.015264
			0.016763 -0.417887 -0.005289
			0.018413 -0.418868 0.003185
			0.026753 -0.421107 0.010622
			0.025330 -0.417231 0.017740
			0.019652 -0.413299 0.021922
			0.010895 -0.414317 0.030401
			0.000871 -0.411863 0.035786
			-0.009098 -0.409211 0.036328
			-0.022163 -0.408518 0.033680
			-0.019123 -0.395822 0.021105
			-0.018744 -0.403336 0.013169
			-0.024226 -0.412954 -0.028231
			-0.024669 -0.410552 -0.019724
			-0.018706 -0.417224 -0.032199
			-0.017612 -0.415397 -0.012801
			-0.007991 -0.416280 -0.008101
			-0.010294 -0.422335 -0.032857
			0.003111 -0.423059 -0.030608
			-0.015386 -0.415554 0.013915
			-0.020322 -0.409831 0.014259
			-0.006797 -0.422000 0.013337
			0.004849 -0.416357 0.000393
			0.004695 -0.417706 -0.006370
			0.011100 -0.423568 -0.026482
			0.011839 -0.424598 -0.018453
			0.010711 -0.418415 -0.000600
			0.009935 -0.421177 -0.009948
			0.011762 -0.421603 0.004607
			0.016955 -0.425625 0.012208
			0.019832 -0.425175 0.021480
			0.015094 -0.418886 0.025076
			0.007467 -0.420808 0.029176
			0.001320 -0.417849 0.033884
			-0.009397 -0.415455 0.035615
			-0.019867 -0.414476 0.033618
			-0.024003 -0.403513 0.021238
			-0.017009 -0.419300 -0.019009
			-0.012035 -0.418955 -0.013331
			-0.014272 -0.421751 -0.025071
			-0.001255 -0.420783 -0.011531
			-0.003364 -0.424534 -0.023948
			-0.016647 -0.420793 0.017938
			-0.022992 -0.415806 0.022876
			-0.006122 -0.426428 0.015511
			0.003973 -0.421652 0.006905
			0.003690 -0.424559 -0.017862
			0.006600 -0.430363 0.020635
			0.002079 -0.429172 0.015132
			0.009509 -0.428067 0.027484
			-0.006676 -0.425121 0.033682
			-0.015926 -0.422695 0.031061
			-0.018048 -0.422181 0.023921
			-0.007074 -0.422840 -0.017632
			-0.011352 -0.426908 0.020582
			-0.004088 -0.429494 0.020260
			-0.001085 -0.428210 0.031010
			-0.010534 -0.427177 0.026832
		</DataArray>
	</Points>
			<Polys>
				<DataArray type="Int32" Name="connectivity" format="ascii">
					2 1 0 
					0 3 2 
					0 1 4 
					4 5 0 
					5 3 0 
					6 1 2 
					7 1 6 
					8 1 7 
					9 1 8 
					10 1 9 
					11 1 10 
					4 1 11 
					3 12 2 
					12 13 2 
					2 13 6 
					3 14 12 
					5 15 3 
					15 14 3 
					11 16 4 
					16 5 4 
					16 17 5 
					17 15 5 
					13 18 6 
					6 18 7 
					18 19 7 
					7 19 8 
					19 20 8 
					8 20 9 
					20 21 9 
					9 21 10 
					21 22 10 
					22 23 10 