<?xml version="1.0"?>
<VTKFile type="PolyData" version="0.1" byte_order="LittleEndian" compressor="vtkZLibDataCompressor">
	<PolyData>
		<Piece NumberOfPoints="456" NumberOfVerts="0" NumberOfLines="0" NumberOfStrips="0" NumberOfPolys="908">
		<PointData Normals="Normals">
		<DataArray type="Float32" Name="Normals" NumberOfComponents="3" format="ascii">
			0.171814 0.769227 0.615443
			0.318395 0.339365 0.885131
			-0.053133 0.594978 0.801984
			0.121419 0.849914 0.512742
			0.447516 0.731801 0.514000
			0.457582 0.816506 0.352048
			-0.125165 0.291650 0.948301
			-0.033106 0.020110 0.999250
			0.195318 -0.128079 0.972341
			0.523711 0.009660 0.851842
			0.699471 0.216774 0.680992
			0.659268 0.478885 0.579685
			-0.198456 0.792925 0.576095
			-0.408977 0.522950 0.747837
			0.028884 0.948950 0.314101
			0.360356 0.907854 0.214347
			0.771296 0.553330 0.314529
			0.655762 0.748387 0.099470
			-0.410792 0.089363 0.907339
			-0.162794 -0.235791 0.958071
			0.211532 -0.321988 0.922810
			0.593197 -0.213477 0.776237
			0.779069 -0.077761 0.622096
			0.879108 0.196705 0.434137
			-0.279200 0.850344 0.446052
			-0.516246 0.665947 0.538521
			-0.648040 0.289224 0.704552
			-0.147660 0.982363 0.114712
			0.141929 0.989866 0.004518
			0.401330 0.910730 -0.097492
			0.893600 0.443172 0.071256
			0.660487 0.723010 -0.202518
			-0.497687 -0.164826 0.851551
			-0.164696 -0.429541 0.887902
			0.222881 -0.518612 0.825449
			0.623732 -0.450298 0.638898
			0.874521 -0.218810 0.432822
			0.970418 0.079951 0.227812
			-0.424996 0.870040 0.249818
			-0.667545 0.626689 0.402050
			-0.810471 0.271757 0.518926
			-0.735376 -0.122609 0.666476
			-0.513615 0.857633 -0.025800
			-0.235701 0.960547 -0.147631
			0.031471 0.964886 -0.260776
			0.313700 0.862790 -0.396466
			0.993011 0.078440 -0.088179
			0.861216 0.433464 -0.265360
			0.591052 0.619514 -0.516584
			-0.469163 -0.470998 0.747025
			-0.098327 -0.643830 0.758824
			0.340084 -0.688124 0.640959
			0.707863 -0.566802 0.421504
			0.939580 -0.275454 0.203262
			-0.769278 0.623924 0.137591
			-0.927375 0.249269 0.279000
			-0.885649 -0.191422 0.423065
			-0.589196 -0.494927 0.638666
			-0.567112 0.796145 -0.211036
			-0.830318 0.557281 -0.003074
			-0.288972 0.883379 -0.368965
			-0.009232 0.847320 -0.531002
			0.258166 0.682565 -0.683707
			0.946458 -0.109928 -0.303531
			0.820950 0.261126 -0.507794
			0.477743 0.408957 -0.777505
			-0.198392 -0.744877 0.637023
			0.295075 -0.775323 0.558395
			0.645534 -0.715697 0.266578
			0.881507 -0.471317 -0.028387
			-0.948973 0.219278 0.226644
			-0.911226 -0.214087 0.351900
			-0.656270 -0.614363 0.438026
			-0.215507 -0.830276 0.514003
			-0.469983 0.725779 -0.502355
			-0.753920 0.572877 -0.321584
			-0.935998 0.295188 -0.191764
			-0.238424 0.717589 -0.654386
			0.019129 0.584304 -0.811309
			0.204947 0.343994 -0.916332
			0.804847 -0.275352 -0.525739
			0.699718 0.072997 -0.710680
			0.378413 0.007563 -0.925606
			0.209502 -0.869563 0.447179
			0.682035 -0.707669 0.184483
			0.801136 -0.571642 -0.177222
			-0.997661 0.019490 0.065519
			-0.859880 -0.497809 0.113105
			-0.519253 -0.845054 0.127514
			-0.261784 -0.951240 0.163130
			-0.741759 0.361126 -0.565138
			-0.548006 0.304211 -0.779195
			-0.892934 0.137306 -0.428738
			-0.957769 -0.220917 -0.184050
			-0.416105 0.244516 -0.875824
			-0.102841 0.214342 -0.971330
			0.196260 -0.013800 -0.980455
			0.595425 -0.613398 -0.518857
			0.549797 -0.312349 -0.774701
			0.378238 -0.348244 -0.857708
			-0.122496 -0.982265 0.141951
			0.138146 -0.990226 0.019187
			0.428855 -0.888146 -0.165170
			-0.707938 -0.686539 0.165796
			-0.328136 -0.909328 0.255831
			-0.168994 -0.975375 0.141724
			-0.820769 0.207058 -0.532415
			-0.615456 0.365731 -0.698179
			-0.995525 -0.063698 -0.069805
			-0.828069 -0.396135 0.396710
			-0.307359 0.466458 -0.829426
			0.265090 0.208394 -0.941435
			0.355570 -0.740534 -0.570246
			0.658164 -0.193260 -0.727647
			0.057033 -0.998263 0.014736
			0.221704 -0.945738 -0.237545
			-0.273313 -0.654160 0.705247
			0.264409 -0.842128 0.470009
			-0.757978 0.648301 -0.071942
			-0.956510 0.240605 0.164914
			-0.129183 0.927394 -0.351073
			-0.869495 -0.051127 0.491289
			-0.520342 -0.192038 0.832085
			0.461852 0.717155 -0.521901
			0.886901 0.187824 -0.422053
			0.707336 -0.517302 -0.481742
			0.917068 -0.198466 -0.345827
			0.663446 -0.747816 -0.024726
			0.205854 -0.452709 0.867571
			0.750508 -0.485831 0.448003
			-0.119197 0.987879 0.099438
			-0.671939 0.677232 0.299759
			-0.900142 0.300473 0.315373
			-0.883726 0.184618 0.430051
			0.504775 0.851656 -0.141011
			-0.685604 0.073970 0.724207
			-0.184532 -0.089582 0.978736
			0.828997 0.482874 -0.282128
			0.901521 -0.127231 -0.413608
			0.937989 -0.311033 -0.153088
			0.935159 -0.175114 -0.307917
			0.879554 -0.289728 -0.377414
			0.612474 -0.378115 0.694193
			0.942917 -0.270705 0.193975
			0.023275 0.949417 0.313154
			0.540602 0.837863 -0.075725
			-0.176123 0.516790 0.837800
			-0.559045 0.306157 0.770544
			-0.481696 0.551585 0.680973
			-0.626944 0.318605 0.710938
			0.719987 0.524233 -0.454749
			-0.606043 0.246803 0.756175
			-0.034251 0.193758 0.980451
			0.785935 -0.038303 -0.617121
			0.858360 -0.202826 -0.471253
			0.822061 -0.255535 -0.508839
			0.938752 -0.309424 0.151665
			0.944197 -0.122006 -0.305951
			0.709089 -0.286114 0.644462
			0.262609 0.904032 0.337286
			0.371898 0.874579 -0.311133
			0.598236 0.341668 -0.724828
			0.625835 0.333799 0.704917
			0.427267 -0.130065 0.894721
			0.363586 0.324838 0.873090
			-0.050210 0.414477 0.908673
			-0.468250 0.320957 0.823243
			0.705854 -0.058699 -0.705920
			-0.378440 0.554098 0.741457
			-0.316872 0.647491 0.693071
			0.401053 0.293772 0.867672
			0.848234 -0.095578 -0.520925
			0.771930 -0.180815 -0.609451
			0.807229 -0.176477 -0.563238
			0.831889 -0.131078 -0.539240
			0.762951 -0.248747 0.596684
			0.771402 -0.157928 0.616438
			0.965260 0.083877 0.247464
			0.191771 0.954323 -0.229110
			0.203529 0.357215 -0.911578
			0.466279 0.020803 -0.884393
			0.242895 0.897918 0.367077
			0.317741 0.127130 0.939617
			0.046861 0.102726 0.993605
			-0.339757 0.089631 0.936233
			-0.541201 0.070310 0.837949
			-0.723297 0.382251 0.575087
			0.754488 -0.244765 -0.608965
			0.684606 -0.100969 -0.721886
			-0.480907 0.561258 0.673586
			-0.008265 0.248965 0.968477
			0.775398 -0.208986 0.595888
			0.930813 0.130388 -0.341446
			0.797591 0.036310 -0.602104
			0.724691 -0.104096 -0.681166
			0.998688 -0.009014 -0.050407
			0.698801 -0.318571 0.640459
			0.538072 -0.143625 0.830573
			0.724639 -0.005442 0.689108
			-0.196743 0.673664 -0.712368
			-0.392425 0.906941 -0.153167
			0.015387 0.241539 -0.970269
			0.377407 0.188479 -0.906664
			-0.718171 0.580767 0.383328
			-0.737691 0.020405 0.674829
			-0.831236 -0.032436 0.554972
			-0.837351 -0.214257 0.502928
			-0.904984 -0.225381 0.360842
			-0.956831 0.026942 0.289395
			0.465328 -0.351936 -0.812165
			0.567396 -0.162193 -0.807314
			-0.522674 -0.205564 0.827379
			0.464054 -0.491766 0.736763
			0.690574 -0.441075 0.573202
			0.935925 0.162720 -0.312358
			0.780985 0.152756 -0.605580
			0.556974 -0.021571 -0.830250
			0.950278 0.064090 0.304735
			0.398516 -0.266899 0.877468
			0.597053 -0.062286 0.799781
			-0.300000 0.430032 -0.851512
			-0.660306 0.571768 -0.486905
			-0.923200 0.370556 -0.101931
			0.018103 0.206845 -0.978206
			-0.987972 0.083701 0.130025
			-0.997434 -0.070555 -0.012070
			-0.961156 -0.261404 -0.088586
			-0.932099 -0.349557 0.094883
			-0.950776 -0.308065 0.033476
			-0.895645 -0.348906 0.275836
			-0.872905 -0.428433 0.233412
			0.049521 -0.403546 -0.913619
			0.120123 -0.336986 -0.933815
			-0.210669 -0.772422 0.599151
			0.265057 -0.700985 0.662092
			0.876688 0.171309 -0.449524
			0.969685 0.137133 0.202250
			0.630108 0.067481 -0.773570
			0.000788 -0.129440 -0.991587
			0.411214 0.003220 -0.911533
			0.573120 -0.035105 0.818719
			0.056157 -0.309779 0.949148
			-0.534782 0.189653 -0.823432
			-0.830247 0.151717 -0.536351
			-0.938432 0.059584 -0.340288
			-0.380370 -0.295981 -0.876193
			-0.921647 -0.201557 -0.331576
			-0.901073 -0.432174 -0.035960
			-0.861417 -0.302216 -0.408198
			-0.812720 -0.325601 -0.483188
			-0.882749 -0.412672 0.224626
			-0.552507 -0.737422 0.388516
			-0.415987 -0.383573 -0.824517
			0.790667 0.164425 -0.589754
			0.958385 0.204271 0.199425
			0.543145 0.077452 0.836059
			-0.192953 -0.097243 -0.976378
			-0.535694 -0.210050 -0.817870
			0.382249 0.056416 -0.922336
			-0.219062 -0.146282 0.964683
			-0.524775 -0.351361 0.775343
			-0.708762 -0.209236 -0.673703
			-0.772889 -0.280837 -0.569010
			-0.806024 -0.240442 0.540845
			-0.909940 -0.248324 -0.332181
			0.638374 0.145747 -0.755803
			0.979609 0.200684 0.009597
			0.291391 0.065146 0.954383
			-0.301642 -0.082440 -0.949851
			-0.148837 -0.058781 -0.987113
			-0.715615 -0.178038 0.675423
			-0.932039 -0.254496 -0.257947
			0.528981 0.078621 -0.844983
			0.976465 0.184783 -0.111229
			0.362857 0.112054 0.925083
			-0.706575 -0.108531 0.699266
			-0.326963 -0.147147 -0.933511
			-0.957188 -0.246037 -0.152504
			0.530752 0.005436 -0.847510
			0.990916 0.126313 -0.046155
			0.375027 0.096770 0.921949
			-0.738991 -0.066945 0.670381
			-0.977390 -0.175559 -0.117848
			-0.432578 -0.153497 -0.888434
			0.569788 -0.018608 -0.821582
			0.985924 0.116524 0.119894
			0.236466 0.124359 0.963648
			-0.782706 -0.007287 0.622350
			-0.976751 -0.120971 -0.176981
			-0.445942 -0.138864 -0.884224
			0.608566 -0.044537 -0.792252
			0.987025 0.088457 0.134000
			0.246055 0.124621 0.961211
			-0.781233 0.023892 0.623782
			-0.964835 -0.082814 -0.249467
			-0.379661 -0.140804 -0.914348
			0.488501 -0.094735 -0.867405
			0.998444 0.031544 0.045982
			0.296385 0.145611 0.943903
			-0.723609 0.081749 0.685351
			-0.976784 -0.012995 -0.213833
			-0.394808 -0.098234 -0.913497
			-0.046293 -0.086393 -0.995186
			0.767311 -0.069389 -0.637509
			0.986364 0.010714 0.164232
			0.395913 0.145126 0.906747
			-0.557482 0.123320 0.820979
			-0.973302 0.052881 0.223351
			-0.745898 -0.028449 -0.665452
			-0.136368 -0.051620 -0.989312
			0.690577 -0.083522 -0.718420
			0.996965 -0.017733 0.075808
			0.491536 0.159442 0.856137
			-0.592297 0.194331 0.781933
			-0.939438 0.093294 0.329776
			-0.856988 0.052035 -0.512703
			-0.145284 0.090776 -0.985217
			0.638285 0.000842 -0.769799
			0.990777 -0.037185 0.130297
			0.686918 0.160356 0.708823
			-0.490153 0.386152 0.781433
			-0.952194 0.173686 0.251315
			-0.950343 0.199697 -0.238684
			-0.620117 0.540418 -0.568686
			0.168015 0.242130 -0.955585
			0.863289 0.239849 -0.444077
			0.972662 0.134555 0.189273
			0.821080 0.156127 0.549046
			0.004185 0.539747 0.841817
			-0.896210 0.372638 0.240725
			-0.919638 0.360711 0.155418
			-0.440956 0.794153 -0.418185
			0.107600 0.408202 -0.906528
			-0.620706 0.742072 0.253086
			0.392966 0.198857 -0.897794
			0.807461 0.175349 -0.563258
			0.985177 0.098965 0.140115
			0.983571 0.136491 0.118146
			0.836626 0.297415 0.460002
			0.738555 0.419877 0.527485
			0.167167 0.693490 0.700805
			-0.845888 0.518892 0.123384
			-0.792279 0.603878 0.087321
			-0.755470 0.637085 0.152927
			-0.405735 0.688164 -0.601505
			-0.504752 0.810528 0.297101
			0.023408 0.345463 -0.938140
			0.299523 0.040160 -0.953244
			-0.625338 0.603285 0.494975
			0.399199 -0.051687 -0.915406
			0.901574 -0.137545 -0.410179
			0.921716 -0.322741 0.215128
			0.952309 -0.280670 -0.119714
			0.997790 0.060748 0.026913
			0.836979 0.185502 0.514836
			0.751950 0.224889 0.619674
			0.718741 0.011395 0.695186
			0.385466 0.147170 0.910910
			-0.234264 0.696980 0.677746
			-0.599714 0.779822 0.179498
			-0.585206 0.802091 -0.119100
			-0.870539 0.488057 0.062940
			-0.689931 0.527057 -0.496191
			-0.379865 0.132901 -0.915445
			-0.775564 0.631265 0.002353
			-0.542418 0.202639 0.815303
			-0.700088 0.440556 0.561950
			-0.077675 -0.210649 -0.974471
			0.211447 -0.275940 -0.937628
			-0.953207 -0.233465 0.192067
			0.252274 -0.217120 -0.942983
			0.391106 -0.184157 -0.901732
			0.818167 -0.532809 -0.216143
			0.736199 -0.624641 0.260451
			0.726338 -0.660640 -0.189705
			0.738781 -0.383402 -0.554261
			0.964529 -0.208637 0.161727
			0.794352 -0.028527 0.606787
			0.774578 0.025582 0.631961
			0.622382 -0.206803 0.754899
			0.275066 -0.124214 0.953367
			-0.251547 0.194416 0.948118
			-0.447840 0.746288 0.492437
			-0.249693 0.963816 0.093334
			-0.309947 0.871868 -0.379184
			-0.650701 0.394715 -0.648682
			-0.687957 0.047702 -0.724182
			-0.974643 0.218788 -0.046933
			-0.325292 -0.135881 -0.935800
			-0.909696 0.044326 0.412902
			-0.501793 -0.248063 0.828655
			-0.528547 -0.149172 0.835694
			-0.101273 -0.155848 -0.982576
			0.136459 -0.219007 -0.966134
			-0.578311 -0.069603 -0.812842
			-0.914852 -0.396528 -0.076233
			0.223615 -0.242773 -0.943959
			0.419370 -0.673850 -0.608322
			0.485021 -0.863571 0.137835
			0.361715 -0.908773 0.208069
			0.305282 -0.836201 -0.455600
			0.660874 -0.700060 -0.270482
			0.755649 -0.104584 0.646574
			0.691529 -0.141916 0.708271
			0.534676 -0.274936 0.799082
			0.255251 -0.258192 0.931763
			-0.163638 -0.023060 0.986251
			-0.682321 0.163314 0.712577
			-0.632851 0.765931 -0.113351
			-0.519214 0.346810 -0.781115
			-0.855689 -0.313704 -0.411567
			-0.860634 -0.438283 0.259263
			-0.568783 -0.400668 -0.718297
			-0.634422 -0.595824 0.492444
			-0.354964 -0.534972 0.766684
			-0.144320 -0.650226 -0.745907
			0.160800 -0.674351 -0.720690
			-0.499330 -0.230179 -0.835277
			-0.642879 -0.231223 -0.730234
			-0.454920 -0.488929 -0.744309
			-0.577797 -0.771896 -0.265193
			-0.387101 -0.791064 0.473678
			0.158111 -0.971887 -0.174461
			0.166504 -0.969012 0.182464
			-0.050929 -0.971722 -0.230571
			-0.071158 -0.922977 0.378219
			0.061239 -0.838021 -0.542190
			0.267555 -0.891965 -0.364436
			0.622734 -0.662234 0.416712
			0.569388 -0.130603 0.811628
			0.439454 -0.285951 0.851535
			0.170693 -0.271719 0.947118
			-0.099210 -0.241779 0.965246
			-0.764873 -0.382196 0.518552
			-0.984197 0.080624 -0.157653
			-0.607808 -0.763817 0.217150
			-0.418305 -0.782099 0.461891
			-0.431621 -0.902028 0.007030
			-0.164044 -0.826862 0.537949
			-0.098499 -0.994209 -0.042983
			-0.562566 -0.557240 -0.610740
			-0.865907 -0.465356 -0.183440
			-0.381724 -0.684735 -0.620826
			-0.294897 -0.694379 -0.656409
			-0.055033 -0.975482 0.213087
			0.141987 -0.986704 -0.079083
			-0.121631 -0.862297 -0.491578
			0.411754 -0.462902 0.784971
			0.042088 -0.452698 0.890670
			-0.436544 -0.569602 0.696407
			-0.714649 -0.698365 0.039529
			-0.252543 -0.919024 0.302684
			-0.526272 -0.803691 -0.277701
			-0.223907 -0.967776 -0.115218
			-0.027017 -0.900940 0.433101
			-0.386849 -0.899922 0.201218
		</DataArray>
	</PointData>
	<Points>
		<DataArray type="Float32" NumberOfComponents="3" format="ascii">
			0.001795 0.016249 0.015896
			0.007414 0.007692 0.019077
			-0.003503 0.013279 0.018974
			0.001468 0.018877 0.012441
			0.008937 0.016125 0.013593
			0.012985 0.015966 0.009028
			-0.006425 0.006291 0.021593
			-0.003032 -0.002121 0.023379
			0.005533 -0.006548 0.021850
			0.013646 -0.000887 0.019211
			0.016959 0.004164 0.014048
			0.014804 0.012429 0.011954
			-0.004228 0.016495 0.015330
			-0.009586 0.010363 0.018627
			-0.000394 0.021308 0.006877
			0.008636 0.019701 0.004943
			0.018975 0.010411 0.007017
			0.015538 0.016048 0.002328
			-0.010382 0.001715 0.021255
			-0.005165 -0.005448 0.022228
			0.005077 -0.009522 0.020971
			0.013627 -0.006751 0.018367
			0.018489 -0.003108 0.013903
			0.020597 0.001930 0.010365
			-0.006924 0.019192 0.010101
			-0.012370 0.013950 0.013555
			-0.014864 0.005730 0.017303
			-0.002691 0.022348 0.001584
			0.002876 0.022200 -0.001127
			0.009079 0.020082 -0.003318
			0.020552 0.009689 0.000246
			0.015937 0.015206 -0.005589
			-0.011981 -0.004399 0.020077
			-0.004619 -0.010546 0.020769
			0.005601 -0.012411 0.019379
			0.014127 -0.010553 0.015932
			0.020278 -0.005899 0.009974
			0.023136 0.001342 0.002690
			-0.009064 0.020270 0.004741
			-0.015022 0.015534 0.008237
			-0.018796 0.006679 0.012413
			-0.017302 -0.002225 0.016013
			-0.012132 0.019605 -0.001076
			-0.005881 0.021704 -0.003433
			-0.000034 0.021757 -0.006599
			0.005685 0.019940 -0.009556
			0.023756 -0.000449 -0.000735
			0.020558 0.009162 -0.005699
			0.013225 0.013512 -0.013009
			-0.011396 -0.010096 0.018114
			-0.003177 -0.014178 0.018457
			0.006243 -0.016388 0.016012
			0.016142 -0.012908 0.011119
			0.021329 -0.008721 0.005360
			-0.017588 0.014896 0.002305
			-0.021247 0.006621 0.007027
			-0.020390 -0.003732 0.010999
			-0.014281 -0.011757 0.014489
			-0.015177 0.016801 -0.005036
			-0.020491 0.011200 0.000170
			-0.008445 0.019490 -0.008775
			-0.001341 0.018861 -0.012972
			0.005266 0.015084 -0.016723
			0.022141 -0.004367 -0.006723
			0.018491 0.005696 -0.012640
			0.010319 0.009620 -0.018715
			-0.005248 -0.016009 0.016304
			0.005549 -0.018270 0.014094
			0.015566 -0.015782 0.007468
			0.021583 -0.010242 0.000082
			-0.022955 0.001321 0.004276
			-0.020507 -0.007808 0.008338
			-0.012621 -0.014437 0.014475
			-0.002785 -0.017899 0.014873
			-0.009970 0.016828 -0.012637
			-0.016055 0.014765 -0.008764
			-0.021196 0.008939 -0.004299
			-0.004967 0.015565 -0.017011
			-0.000624 0.013495 -0.019381
			0.003353 0.008292 -0.021606
			0.017967 -0.004878 -0.014385
			0.015163 0.001825 -0.018033
			0.008881 -0.000378 -0.021952
			0.008293 -0.019318 0.010623
			0.015230 -0.017412 0.000599
			0.018766 -0.012535 -0.007052
			-0.024002 0.000763 0.000024
			-0.022301 -0.006854 0.004235
			-0.014833 -0.014041 0.008513
			-0.005493 -0.017599 0.010460
			-0.017586 0.010782 -0.011383
			-0.011330 0.012226 -0.016201
			-0.021151 0.004045 -0.007003
			-0.022232 -0.003625 -0.004613
			-0.006077 0.009989 -0.020637
			-0.000088 0.005694 -0.022766
			0.002732 -0.001754 -0.023487
			0.015241 -0.015554 -0.009794
			0.012817 -0.007359 -0.018424
			0.006837 -0.009257 -0.020359
			0.002569 -0.019788 0.008321
			0.007947 -0.020501 0.004813
			0.013237 -0.018739 -0.002687
			-0.017956 -0.012253 0.001957
			-0.009990 -0.016572 0.004401
			-0.002549 -0.019128 0.003655
			-0.016957 -0.001319 -0.012636
			-0.010864 0.003803 -0.015876
			-0.020026 -0.009408 -0.008648
			-0.016530 -0.016722 -0.003543
			-0.006195 0.001468 -0.020072
			-0.000816 -0.002059 -0.023952
			0.008840 -0.015612 -0.014894
			0.002787 -0.009303 -0.022247
			0.003436 -0.019542 0.000199
			0.008041 -0.018849 -0.006374
			-0.010245 -0.020660 -0.001785
			-0.001660 -0.021786 -0.005220
			-0.018230 -0.007323 -0.021449
			-0.021490 -0.015170 -0.016418
			-0.011706 -0.003081 -0.025497
			-0.018974 -0.021184 -0.010756
			-0.016053 -0.027233 -0.008122
			-0.005536 -0.006393 -0.029632
			-0.002381 -0.014049 -0.029947
			0.004590 -0.015123 -0.017672
			-0.001983 -0.021305 -0.027459
			0.004148 -0.019496 -0.011944
			-0.010711 -0.030086 -0.007745
			-0.004591 -0.030820 -0.012322
			-0.015365 -0.003809 -0.031204
			-0.020052 -0.008844 -0.025998
			-0.022720 -0.017052 -0.020774
			-0.022613 -0.025046 -0.016728
			-0.010398 -0.005939 -0.035853
			-0.019266 -0.033184 -0.010428
			-0.016100 -0.035639 -0.008451
			-0.005781 -0.010334 -0.037976
			-0.003376 -0.016472 -0.038576
			-0.001846 -0.028023 -0.022255
			-0.004925 -0.032025 -0.030444
			-0.005058 -0.022463 -0.035439
			-0.007403 -0.038989 -0.014404
			-0.003235 -0.037946 -0.021890
			-0.017844 -0.002509 -0.037288
			-0.013004 -0.003920 -0.040884
			-0.024407 -0.007025 -0.032278
			-0.026013 -0.015071 -0.031670
			-0.026413 -0.023602 -0.025983
			-0.025700 -0.033027 -0.017621
			-0.009270 -0.007522 -0.044099
			-0.022609 -0.040066 -0.012767
			-0.019536 -0.044448 -0.008548
			-0.008273 -0.012586 -0.045298
			-0.008750 -0.028440 -0.038011
			-0.009292 -0.019408 -0.042941
			-0.004498 -0.045394 -0.022714
			-0.006353 -0.037534 -0.031576
			-0.011681 -0.046123 -0.014175
			-0.022413 -0.000586 -0.041080
			-0.017821 -0.000865 -0.046741
			-0.014338 -0.007116 -0.049339
			-0.031379 -0.001667 -0.027842
			-0.033664 -0.010885 -0.031553
			-0.034087 -0.020288 -0.030136
			-0.033935 -0.027359 -0.024102
			-0.031362 -0.035113 -0.020952
			-0.013484 -0.016586 -0.049133
			-0.027321 -0.043109 -0.015193
			-0.024857 -0.047499 -0.010972
			-0.021552 -0.050377 -0.005341
			-0.012386 -0.033175 -0.042607
			-0.013922 -0.025991 -0.046009
			-0.006276 -0.047537 -0.032478
			-0.009434 -0.040207 -0.037335
			-0.017663 -0.052402 -0.011757
			-0.008271 -0.053581 -0.019597
			-0.004103 -0.051286 -0.026294
			-0.023740 0.000384 -0.045473
			-0.018017 -0.008912 -0.051656
			-0.016382 -0.019029 -0.050956
			-0.032119 0.001529 -0.029765
			-0.037422 -0.002198 -0.023082
			-0.039919 -0.016396 -0.026058
			-0.039373 -0.027193 -0.023689
			-0.037205 -0.037520 -0.022666
			-0.032921 -0.045095 -0.016545
			-0.015990 -0.036531 -0.046550
			-0.016546 -0.028868 -0.050960
			-0.030803 -0.050149 -0.006994
			-0.026582 -0.053521 -0.002620
			-0.021260 -0.055760 -0.004951
			-0.005256 -0.053838 -0.031662
			-0.009064 -0.049910 -0.037807
			-0.012936 -0.043344 -0.042929
			-0.003909 -0.056632 -0.025600
			-0.019510 -0.056972 -0.011788
			-0.013466 -0.058067 -0.017284
			-0.008151 -0.058574 -0.020282
			-0.028052 -0.001490 -0.048048
			-0.036347 0.001131 -0.035067
			-0.024430 -0.010699 -0.052868
			-0.022740 -0.019954 -0.054724
			-0.041866 -0.001061 -0.025912
			-0.043920 -0.017302 -0.027054
			-0.044778 -0.026708 -0.027297
			-0.043336 -0.036133 -0.027800
			-0.035201 -0.047147 -0.023916
			-0.033401 -0.053610 -0.009763
			-0.021039 -0.037972 -0.050348
			-0.020986 -0.030100 -0.055122
			-0.028845 -0.056835 -0.003940
			-0.022699 -0.059496 -0.005793
			-0.019868 -0.061094 -0.014287
			-0.004845 -0.059920 -0.033713
			-0.010471 -0.054441 -0.041545
			-0.017362 -0.048723 -0.046318
			-0.002745 -0.062742 -0.027898
			-0.013335 -0.063738 -0.018165
			-0.006070 -0.064376 -0.021740
			-0.031361 -0.005983 -0.049172
			-0.042319 -0.003633 -0.039194
			-0.044738 -0.007215 -0.031862
			-0.028321 -0.018084 -0.056859
			-0.045877 -0.015310 -0.033147
			-0.045833 -0.026177 -0.035354
			-0.043503 -0.034851 -0.035925
			-0.037768 -0.051667 -0.031808
			-0.031358 -0.058757 -0.021827
			-0.031620 -0.061844 -0.029538
			-0.032784 -0.060415 -0.011114
			-0.026002 -0.039424 -0.050916
			-0.025391 -0.029380 -0.057622
			-0.027788 -0.062049 -0.006182
			-0.021329 -0.066033 -0.016492
			-0.004927 -0.067201 -0.037548
			-0.001992 -0.069216 -0.028005
			-0.011887 -0.065462 -0.043815
			-0.023227 -0.047836 -0.049167
			-0.016932 -0.064307 -0.047322
			-0.007212 -0.070301 -0.021282
			-0.015187 -0.068743 -0.018517
			-0.034353 -0.018831 -0.054119
			-0.041939 -0.017200 -0.047773
			-0.044679 -0.019199 -0.041752
			-0.031875 -0.032225 -0.054451
			-0.043526 -0.028578 -0.043645
			-0.033464 -0.063076 -0.036874
			-0.036340 -0.054934 -0.039161
			-0.039877 -0.041693 -0.041472
			-0.027816 -0.073187 -0.032023
			-0.027755 -0.066002 -0.019729
			-0.031789 -0.042835 -0.047973
			-0.000066 -0.083414 -0.036538
			0.001368 -0.083414 -0.029251
			-0.003572 -0.084573 -0.023063
			-0.023209 -0.065224 -0.047688
			-0.029289 -0.053013 -0.046253
			-0.010066 -0.083305 -0.044754
			-0.012490 -0.085186 -0.022032
			-0.015618 -0.076417 -0.021295
			-0.038412 -0.031288 -0.050259
			-0.030016 -0.064257 -0.042953
			-0.020111 -0.088350 -0.028280
			-0.024192 -0.086157 -0.042596
			0.001674 -0.114743 -0.043534
			0.006874 -0.107347 -0.032576
			0.002556 -0.113007 -0.022164
			-0.018990 -0.085334 -0.047853
			-0.011639 -0.115449 -0.047446
			-0.011681 -0.114730 -0.026604
			-0.016799 -0.116932 -0.042959
			0.008089 -0.145764 -0.044433
			0.015165 -0.143353 -0.034279
			0.009310 -0.143528 -0.020116
			-0.002875 -0.146576 -0.025086
			-0.001756 -0.147796 -0.045513
			-0.007460 -0.149026 -0.038733
			0.015099 -0.178401 -0.042769
			0.020985 -0.175554 -0.033103
			0.015054 -0.175162 -0.018830
			0.002500 -0.175151 -0.023505
			-0.000561 -0.177528 -0.035025
			0.004354 -0.176914 -0.043361
			0.018929 -0.206374 -0.040169
			0.024829 -0.204443 -0.026813
			0.015447 -0.204587 -0.016601
			0.006362 -0.206800 -0.021234
			0.004000 -0.208076 -0.032679
			0.008973 -0.207960 -0.040525
			0.023545 -0.241751 -0.035767
			0.028206 -0.239962 -0.023498
			0.019781 -0.238952 -0.012983
			0.009518 -0.239368 -0.016939
			0.007126 -0.242416 -0.028554
			0.013605 -0.242579 -0.036864
			0.026847 -0.274641 -0.030237
			0.030606 -0.273026 -0.019745
			0.021941 -0.270831 -0.008797
			0.010515 -0.272479 -0.013170
			0.008846 -0.275061 -0.026249
			0.016056 -0.276413 -0.032422
			0.016988 -0.307083 -0.028840
			0.024708 -0.306786 -0.027726
			0.030664 -0.305174 -0.013854
			0.024724 -0.303786 -0.004205
			0.015050 -0.303605 -0.005936
			0.008300 -0.304867 -0.014024
			0.009460 -0.306907 -0.024873
			0.015559 -0.340184 -0.025882
			0.026514 -0.340585 -0.024025
			0.030539 -0.341299 -0.010139
			0.023242 -0.338525 0.002213
			0.013536 -0.337084 0.000186
			0.008097 -0.337793 -0.009570
			0.006865 -0.339171 -0.021191
			0.013124 -0.367059 -0.025388
			0.027591 -0.369993 -0.020260
			0.027709 -0.368313 -0.003982
			0.023533 -0.365258 0.006661
			0.012857 -0.362424 0.008955
			0.006062 -0.367552 -0.007022
			0.004021 -0.366642 -0.021246
			-0.000343 -0.379953 -0.023605
			0.012444 -0.381437 -0.026637
			0.027033 -0.386524 -0.022208
			0.027300 -0.384931 -0.000997
			0.020286 -0.378024 0.012478
			0.010574 -0.375358 0.017236
			0.006224 -0.377939 0.008444
			0.004279 -0.380700 -0.004006
			-0.006004 -0.386908 -0.028991
			0.008875 -0.394172 -0.032274
			-0.003143 -0.386950 -0.015006
			0.019959 -0.397334 -0.029709
			0.032479 -0.397236 -0.022504
			0.030443 -0.395803 -0.009818
			0.028873 -0.395923 0.000550
			0.025138 -0.391159 0.011844
			0.019111 -0.388099 0.019535
			0.005495 -0.387986 0.032653
			0.009682 -0.382211 0.022560
			0.002534 -0.386063 0.012794
			0.001315 -0.387863 -0.000867
			-0.012502 -0.391566 -0.029413
			-0.012469 -0.390087 -0.014651
			-0.000800 -0.398518 -0.036682
			0.007340 -0.402182 -0.034897
			-0.009260 -0.392127 -0.009475
			0.018591 -0.404484 -0.030320
			0.032677 -0.405952 -0.022576
			0.030130 -0.405345 -0.009999
			0.027695 -0.406431 -0.000914
			0.030601 -0.405352 0.006614
			0.024018 -0.399990 0.016848
			0.017522 -0.394771 0.026469
			0.015730 -0.402297 0.029365
			0.010269 -0.397918 0.036025
			0.001599 -0.394027 0.036881
			-0.002428 -0.391301 0.025458
			-0.003651 -0.392524 0.016059
			-0.004290 -0.394464 0.001430
			-0.019740 -0.397000 -0.027835
			-0.012836 -0.402755 -0.035581
			-0.020844 -0.395546 -0.022154
			-0.013539 -0.400649 -0.006681
			-0.019385 -0.397443 -0.012219
			-0.005195 -0.406224 -0.037579
			0.004903 -0.408443 -0.034849
			-0.004578 -0.400066 0.001032
			0.014629 -0.411899 -0.030548
			0.021782 -0.413354 -0.028678
			0.028468 -0.414204 -0.023569
			0.027193 -0.413645 -0.011707
			0.023054 -0.412977 -0.001017
			0.027387 -0.413810 0.005074
			0.031074 -0.414385 0.009150
			0.027663 -0.410568 0.015232
			0.022652 -0.407738 0.020340
			0.013273 -0.409421 0.030061
			0.005273 -0.402633 0.037568
			-0.008769 -0.397554 0.035649
			-0.017100 -0.394122 0.027770
			-0.005206 -0.393543 0.027954
			-0.011911 -0.392955 0.018645
			-0.010103 -0.398362 0.012630
			-0.024080 -0.406220 -0.029987
			-0.025216 -0.404414 -0.023440
			-0.015436 -0.410292 -0.030993
			-0.023136 -0.405472 -0.014195
			-0.005367 -0.408388 -0.006777
			-0.018893 -0.408765 -0.009106
			-0.009317 -0.413578 -0.032846
			0.000419 -0.416642 -0.032572
			-0.003263 -0.408863 0.008823
			0.001698 -0.410554 0.001174
			0.014002 -0.417720 -0.029302
			0.020460 -0.421304 -0.026495
			0.020293 -0.421241 -0.015239
			0.016780 -0.417887 -0.005237
			0.018404 -0.418868 0.003233
			0.026740 -0.421107 0.010657
			0.025268 -0.417231 0.017829
			0.019525 -0.413299 0.022035
			0.010737 -0.414317 0.030458
			0.000634 -0.411863 0.035791
			-0.009394 -0.409211 0.036253
			-0.022451 -0.408518 0.033489
			-0.019455 -0.395822 0.020798
			-0.018895 -0.403336 0.012952
			-0.024056 -0.412954 -0.028375
			-0.024522 -0.410552 -0.019906
			-0.018593 -0.417224 -0.032265
			-0.017553 -0.415397 -0.012882
			-0.007958 -0.416280 -0.008134
			-0.010275 -0.422335 -0.032863
			0.003115 -0.423059 -0.030607
			-0.015448 -0.415554 0.013845
			-0.020433 -0.409831 0.014101
			-0.006807 -0.422000 0.013332
			0.004848 -0.416357 0.000412
			0.004715 -0.417706 -0.006354
			0.011097 -0.423568 -0.026483
			0.011826 -0.424598 -0.018461
			0.010712 -0.418415 -0.000569
			0.009948 -0.421177 -0.009935
			0.011758 -0.421603 0.004618
			0.016971 -0.425625 0.012186
			0.019855 -0.425175 0.021459
			0.015029 -0.418886 0.025115
			0.007424 -0.420808 0.029187
			0.001213 -0.417849 0.033888
			-0.009558 -0.415455 0.035572
			-0.020038 -0.414476 0.033516
			-0.024244 -0.403513 0.020962
			-0.016964 -0.419300 -0.019049
			-0.012002 -0.418955 -0.013362
			-0.014249 -0.421751 -0.025084
			-0.001238 -0.420783 -0.011533
			-0.003380 -0.424534 -0.023945
			-0.016673 -0.420793 0.017913
			-0.023091 -0.415806 0.022776
			-0.006094 -0.426428 0.015522
			0.003967 -0.421652 0.006909
			0.003678 -0.424559 -0.017864
			0.006683 -0.430363 0.020608
			0.002130 -0.429172 0.015125
			0.009584 -0.428067 0.027458
			-0.006641 -0.425121 0.033689
			-0.015938 -0.422695 0.031055
			-0.018064 -0.422181 0.023909
			-0.007069 -0.422840 -0.017634
			-0.011310 -0.426908 0.020606
			-0.004016 -0.429494 0.020275
			-0.000997 -0.428210 0.031013
			-0.010475 -0.427177 0.026856
		</DataArray>
	</Points>
			<Polys>
				<DataArray type="Int32" Name="connectivity" format="ascii">
					2 1 0 
					0 3 2 
					0 1 4 
					4 5 0 
					5 3 0 
					6 1 2 
					7 1 6 
					8 1 7 
					9 1 8 
					10 1 9 
					11 1 10 
					4 1 11 
					3 12 2 
					12 13 2 
					2 13 6 
					3 14 12 
					5 15 3 
					15 14 3 
					11 16 4 
					16 5 4 
					16 17 5 
					17 15 5 
					13 18 6 
					6 18 7 
					18 19 7 
					7 19 8 
					19 20 8 
					8 20 9 
					20 21 9 
					9 21 10 
					21 22 10 
					22 23 10 